material_id,pretty_formula,final_energy,e_above_hull,spacegroup.number,volume,full_formula,band_gap,density,final_energy_per_atom,formation_energy_per_atom,magnetism.total_magnetization,total_magnetization
mp-23807,AlHO2,-52.21438914,0.034322863749998200,31,58.194343045433900,Al2H2O4,6.0892,3.4234557842027400,-6.5267986425,-2.61174267125,4.56E-05,2.28E-05
mp-2894,ScSnAu,-15.89841644,0.0,216,69.34929308426470,Sc1Sn1Au1,0.1706000000000000,8.635190017838260,-5.299472146666670,-0.7608313133333330,0.0045901,0.0045901
mp-3161,LiAlSi,-11.72460983,0.0,216,52.35524531284300,Li1Al1Si1,0.14260000000000000,1.9666944529296800,-3.908203276666670,-0.19126570444444500,0.000616,0.000616
mp-3281,Al5BO9,-228.51016355,0.0,36,337.27666338632400,Al10B2O18,5.116,2.852733635998960,-7.6170054516666700,-3.3666107872777800,0.0010293,0.00051465
mp-570172,HgIBr,-9.23244798,0.010481029270832200,36,265.2692540369490,Hg2I2Br2,2.6190000000000000,5.100486127305490,-1.53874133,-0.6881993725000000,0.0015687,0.00078435
mp-5777,BaTiO3,-40.05616901,0.000473180000000184,38,67.77512749180360,Ba1Ti1O3,2.3733000000000000,5.713375576803300,-8.011233802,-3.4917646296666700,1.58E-05,1.58E-05
mp-761341,TiVO4,-200.35001075,0.03024242166670100,109,252.22064504983200,Ti4V4O16,1.2085000000000000,4.287450605439100,-8.347917114583330,-2.960710096805560,0.0002919,7.2975E-05
mp-780172,Tm2TeO6,-260.42670928,0.0036258444444445800,19,467.9102610762920,Tm8Te4O24,3.1122,7.970197242411160,-7.2340752577777800,-3.049548834814820,0.0,0.0
mp-7908,Al2ZnTe4,-24.57068473,0.0,82,222.23339780591800,Al2Zn1Te4,1.8962000000000000,4.705688467931010,-3.5100978185714300,-0.7049408200000000,0.0036892,0.0036892
mp-9710,Sr2Si5N8,-229.98553932,0.0,31,372.0411662999910,Sr4Si10N16,3.208500000000000,3.818112942837220,-7.666184644000000,-1.3788835502222200,0.000586,0.000293
mvc-7386,ZnMo2O7,-129.94569579,0.06195981979166380,4,386.8345933490020,Zn2Mo4O14,3.702,3.1704084776530300,-6.4972847895,-1.8599091190000000,0.0005252,0.0002626
mp-1106051,Y3Cu3Sb4,-110.91699109,0.0,220,435.8783855427920,Y6Cu6Sb8,0.4569000000000000,7.195611239797240,-5.5458495545,-0.8013457235000000,0.0004554,0.0002277
mp-1539667,CsPbCl3,-35.51644919,0.0,127,368.95314918706700,Cs2Pb2Cl6,2.7365000000000000,4.018784855809510,-3.551644919,-1.8893130345862100,0.000512,0.000256
mp-16363,CoAsS,-68.95766436,0.004021823333333790,198,174.11988099403400,Co4As4S4,0.8840000000000000,6.329347342689820,-5.74647203,-0.6128433410416660,0.0003747,9.3675E-05
mp-27853,Hg3(TeBr)2,-25.73190891,0.0,199,488.0381785192180,Hg6Te4Br4,1.7064,6.9191291393729700,-1.8379934935714300,-0.6152065307142860,0.0001767,8.835E-05
mp-31110,Sm3GaO6,-155.5623525,0.0,36,292.00555231473700,Sm6Ga2O12,3.6272,7.015068664526560,-7.778117625,-3.50315557925,0.0024696,0.0012348
mp-31318,Nd2TeO6,-259.1049856,0.0,19,532.5718370168260,Nd8Te4O24,2.9978000000000000,6.386590129911730,-7.197360711111110,-2.947877002222220,7.01E-05,1.7525E-05
mp-5046,BeSO4,-38.73568436,0.0,82,73.61106727460100,Be1S1O4,7.075400000000000,2.370306353181790,-6.455947393333330,-2.3864962680208300,0.0003097,0.0003097
mp-752446,RbNO3,-29.10199203,0.021033902000000100,155,101.42668501949400,Rb1N1O3,3.0279,2.4143959704481600,-5.820398406000000,-1.4004160035000000,0.0,0.0
mp-760418,Ba2SrI6,-30.4223115,0.018440473055555200,189,374.7584620414720,Ba2Sr1I6,2.9053000000000000,4.979071321340740,-3.380256833333330,-2.002755632962960,0.0007546,0.0007546
mp-7849,AlAsO4,-40.11756358,0.0,82,101.94364269223200,Al1As1O4,4.3962,2.7023230713344500,-6.686260596666670,-2.4448375541666700,6.97E-05,6.97E-05
mp-1210002,NaNbS6,-82.6227551,0.0,9,355.92709989502400,Na2Nb2S12,1.6715,2.8765508146027900,-5.16392219375,-1.0108560019127200,0.0003592,0.0001796
mp-21521,Cs2PbO3,-55.06293748,0.0,36,284.8350914564550,Cs4Pb2O6,1.6807,6.074785002720900,-4.588578123333330,-1.540855651810350,0.0008103,0.00040515
mp-35208,NdOF,-22.78966624,0.05430110666666720,216,45.19624531006090,Nd1O1F1,5.2925,6.585385433268300,-7.596555413333330,-4.1036943525,0.0014255,0.0014255
mp-37990,AlPO4,-224.2116412,0.014199618333347700,216,665.0391901265160,Al5P5O20,5.4564,1.522523474841850,-7.473721373333330,-3.106600980555560,0.0002434,4.868E-05
mp-4044,ErAgSe2,-76.75319105,0.0,19,398.1351565789,Er4Ag4Se8,1.6953,7.224599801341460,-4.797074440625,-1.4350499984635400,0.0057109,0.001427725
mp-504951,InGaS3,-127.7542432,0.0,169,744.7891612812920,In6Ga6S18,2.0937000000000000,3.7554770098886000,-4.258474773333330,-0.9224489027083330,0.0001257,2.095E-05
mp-555256,Li4CO4,-104.35208452,0.15619766777777800,31,146.02627995804700,Li8C2O8,6.072900000000000,2.3600951586309300,-5.797338028888890,-2.029969563703700,0.0,0.0
mp-556049,Sr4Br6O,-93.59509559,0.0,186,663.9297123667750,Sr8Br12O2,4.2332,4.231338396537350,-4.254322526818180,-2.6510014201515200,0.0005432,0.0002716
mp-5853,LiSi2N3,-89.270672,0.0,36,118.8398815547760,Li2Si4N6,5.0687,2.938002914841890,-7.439222666666670,-1.3248833863888900,2.25E-05,1.125E-05
mp-625455,NaH9O5,-145.26541479,0.04971029166666700,1,290.18423641961600,Na2H18O10,4.0002,1.2824753663351000,-4.842180493,-1.298056178103450,0.0009725,0.00048625
mp-642690,CsGeI3,-14.27088737,0.008639451999999710,8,234.16603554860100,Cs1Ge1I3,2.1808000000000000,4.157331105019940,-2.854177474,-1.063483859586210,0.0022664,0.0022664
mp-675778,NaY2F7,-65.6109741,0.031428211250005900,12,147.08703110384300,Na1Y2F7,7.0374,3.7683255636259000,-6.56109741,-4.120915380738510,0.0014727,0.0014727
mp-771411,Sr3GeO5,-114.4287013,0.03562532027777370,108,276.5143490414180,Sr6Ge2O10,2.5648000000000000,4.990330541231730,-6.357150072222220,-2.9131152677777800,0.0005368,0.0002684
mp-781712,Na2SnO2,-94.49560386,0.040158753749997400,19,344.2224081753910,Na8Sn4O8,2.4072,3.795321424363650,-4.724780193,-1.68947130262069,0.0020951,0.000523775
mp-961684,LiCaAs,-11.48467287,0.08827614083333300,216,74.57591423481590,Li1Ca1As1,1.8116,2.7151813314292900,-3.82822429,-0.9703439061111110,7.73E-05,7.73E-05
mp-998613,KGeCl3,-35.47282033,0.0,161,319.68106200098000,K2Ge2Cl6,2.9285,2.265752526615850,-3.5472820330000000,-1.6598746766000000,0.0006069,0.00030345
mp-10796,HgSeO4,-53.27818897,0.0,31,180.02782049232200,Hg2Se2O8,0.8511,6.3376228127029900,-4.4398490808333300,-0.9659431037239590,0.00026,0.00013
mp-1094088,NbCoSn,-22.18404364,0.0,216,53.27432909436140,Nb1Co1Sn1,1.0775000000000000,8.432919689026670,-7.394681213333330,-0.3216163166666670,0.0001715,0.0001715
mp-14368,SbAsO5,-168.94457664,0.0,19,416.82263120149800,Sb4As4O20,1.7605000000000000,4.408931663502660,-6.03373488,-1.7347456414285700,0.0002567,6.4175E-05
mp-18594,K3AsSe3,-99.65126419,0.0,198,971.7719529159810,K12As4Se12,2.1131000000000000,2.9329165117525600,-3.5589737210714300,-1.1215380526473200,0.0011353,0.000283825
mp-26600,Mo(PO4)2,-312.56341021,0.014981788409094100,19,662.4984553435360,Mo4P8O32,1.3828,2.8662372136210400,-7.10371386840909,-2.3257196790151500,2.63E-05,6.575E-06
mp-29505,Cs3BiO3,-122.61470333,0.0,198,842.7782924747380,Cs12Bi4O12,3.1348000000000000,5.1677035321601800,-4.3790965475,-1.6135073416133000,0.0010009,0.000250225
mp-561104,Ga(IO3)3,-119.81424143,0.0,173,399.7458684604520,Ga2I6O18,3.3313000000000000,4.938517154936650,-4.608240055,-1.0737182925000000,0.0004364,0.0002182
mp-569055,CsLi2I3,-17.20443557,0.017335815000000500,115,235.2628259727690,Cs1Li2I3,4.4204,3.7232222525096500,-2.8674059283333300,-1.5093582699329500,0.0007895,0.0007895
mp-626088,FeHO2,-97.20237558,0.0067484493750065200,36,153.54993981388300,Fe4H4O8,1.7367,3.84348663592366,-6.07514847375,-1.5429843475,0.0,0.0
mp-753525,VOF3,-117.755721,0.024951513499999600,76,264.6458175769680,V4O4F12,3.2111,3.1105838533551100,-5.88778605,-2.689125254500000,0.0,0.0
mp-756696,Mg2Mn3O8,-88.47569459,0.04173399923076900,160,146.267562938336,Mg2Mn3O8,1.1250000000000000,3.876048335467960,-6.805822660769230,-2.208107736445620,8.9996378,8.9996378
mp-757191,P4WO12,-246.66100139,0.017290442941183300,4,534.3022523422760,P8W2O24,3.2428,3.1061729971535400,-7.2547353350000000,-2.472096008137260,3.9983977,1.99919885
mp-768230,SmTaO4,-110.96360663,0.057677559166666700,36,163.59190649815900,Sm2Ta2O8,3.4987000000000000,8.025093744945780,-9.246967219166670,-3.6435992550000000,0.0006167,0.00030835
mp-1094066,ScAgS2,-22.31322154,0.0,160,84.81468112972120,Sc1Ag1S2,1.2832000000000000,4.24762286242054,-5.578305385,-1.4703241744791700,0.0011335,0.0011335
mp-1209286,Rb6CdO4,-75.38859626,0.0,186,524.1596901896350,Rb12Cd2O8,1.2910000000000000,4.366871846205080,-3.4267543754545500,-1.258578174090910,0.0002186,0.0001093
mp-27230,As2SO6,-108.40061988,0.0,18,285.58954270708800,As4S2O12,4.443200000000000,3.2317110823707500,-6.02225666,-1.7425396925694400,0.0019835,0.00099175
mp-28477,Sr(ClO3)2,-84.1060555,0.0,43,284.72598454297900,Sr2Cl4O12,5.279400000000000,2.968779889922510,-4.672558638888890,-1.2334105496296300,0.0010911,0.00054555
mp-29060,Ba5(SiN3)2,-325.67048022,0.01481696525641050,19,1018.0092312420500,Ba20Si8N24,1.4010000000000000,5.394883955991560,-6.262893850384620,-1.0091667934615400,0.0045979,0.001149475
mp-3666,LiTaO3,-84.37087029,0.0,161,109.13330709649700,Li2Ta2O6,3.7746000000000000,7.178371517686230,-8.437087029,-3.127170326666670,0.000156,7.8E-05
mp-4937,SNF,-122.3355139,0.20100016296130800,114,419.0814184561510,S8N8F8,3.4753,2.062634011869920,-5.097313079166670,-0.744505159375,0.0016818,0.000210225
mp-504908,In2TeO6,-151.85058561,0.0,150,348.1194839904910,In6Te3O18,1.0231000000000000,6.485791296324880,-5.624095763333330,-1.8227141611111100,0.0003294,0.0001098
mp-530399,LiAl5O8,-406.69699316,0.0,212,509.57829220840200,Li4Al20O32,5.251,3.5173109456293500,-7.262446306428570,-3.353554159523810,0.0,0.0
mp-561681,CsSO3,-112.75398669,0.0,186,435.6055799266120,Cs4S4O12,5.1115000000000000,3.2473667256573300,-5.637699334500000,-2.175352283711210,0.0015572,0.0003893
mp-567318,TlSbSe2,-59.22310567,0.0,11,473.047855521173,Tl4Sb4Se8,0.8407,6.7968262489784300,-3.701444104375,-0.5665772688802080,0.0013132,0.0003283
mp-625142,Re2H4O9,-202.34100103,0.11070274502778100,4,364.64088422877600,Re4H8O18,1.9464000000000000,4.74006940523521,-6.744700034333330,-1.6241261946666700,0.0008236,0.0004118
mp-626689,Fe(HO)2,-28.25926438,0.014011894499997600,5,43.850479405010700,Fe1H2O2,2.2800000000000000,3.402825035822160,-5.651852876,-1.3475763660000000,3.9999851,3.9999851
mp-675953,Tl2SeO4,-67.68168264,0.01069474464285670,15,297.31907701555200,Tl4Se2O8,2.4715,6.162803929602610,-4.834405902857140,-1.2251142184300600,0.0005156,0.0002578
mp-752535,TaIn3O7,-151.25004885,0.10644907499999500,20,286.95510379766800,Ta2In6O14,1.0782000000000000,7.376929244976950,-6.8750022204545500,-2.335042597272730,0.0006554,0.0003277
mp-768223,Cs2CeO3,-73.10757382,0.0,36,298.7426642299380,Cs4Ce2O6,2.4439,5.0462184242301700,-6.092297818333330,-2.6745016659770100,5.8E-06,2.9E-06
mp-1029565,Na3W2N5,-304.23983405,0.0,80,650.7235680865,Na12W8N20,2.3221,5.17188334989618,-7.60599585125,-0.6298655067155180,0.0,0.0
mp-19842,CaFeO2,-25.95115021,0.09136572250000000,123,51.788659247828300,Ca1Fe1O2,0.0045999999999999400,4.1016537105795000,-6.4877875525,-2.3024049675000000,3.9998622,3.9998622
mp-23011,RbClO3,-21.33330399,0.0651709064999979,160,95.64282469113220,Rb1Cl1O3,5.4277,2.932751092377690,-4.266660798,-1.1442700485000000,0.0002745,0.0002745
mp-510670,FeHO2,-48.24913465,0.05075509187500590,31,69.20740054122960,Fe2H2O4,1.8729,4.2637574667318800,-6.03114183125,-1.4989777050000000,10.0001365,5.00006825
mp-540111,FePO4,-170.59288877,0.004974469583332920,33,401.9548039507620,Fe4P4O16,0.40390000000000000,2.4921852757770800,-7.108037032083330,-2.3295112026388900,19.9997667,4.999941675
mp-555514,OsOF5,-146.96660834,0.0004732021428583980,33,444.4155627479440,Os4O4F20,0.8102,4.5020019179504700,-5.248807440714290,-2.0008471410714300,4.0057617,1.001440425
mp-675941,Li7IN2,-74.14488464,0.0,8,283.8627188886600,Li14I2N4,1.6667,2.380924048084670,-3.707244232,-0.6613979788333330,0.0002427,0.00012135
mp-753756,FePO4,-170.16157052,0.022946063333333400,33,419.2325418668840,Fe4P4O16,2.7501000000000000,2.389475395858060,-7.090065438333330,-2.3115396088888900,20.0011717,5.000292925
mp-14168,K2GeF6,-85.75698298,0.0,186,283.38642705949500,K4Ge2F12,5.902,3.1035756781711000,-4.764276832222220,-3.0375324373333300,0.0010817,0.00054085
mp-22512,Sr2In2O5,-105.16207464,0.029024470555551600,46,291.02657814863,Sr4In4O10,1.1205000000000000,5.533175450582690,-5.84233748,-2.4882086587037000,0.0010212,0.0005106
mp-27442,RbCrI3,-76.28241617,0.0635564926111103,5,818.1720779552070,Rb4Cr4I12,0.19190000000000000,4.206712450178760,-3.8141208085000000,-1.0003969310000000,16.0062499,4.001562475
mp-29117,Ta3TeI7,-108.65277411,0.006215539558868780,186,771.4925752767820,Ta6Te2I14,0.5511000000000000,6.710127226754090,-4.938762459545460,-0.7287877209090910,0.0002745,0.00013725
mp-29526,BrNO3,-101.75463911,0.0,19,364.22402882075400,Br4N4O12,2.5676,2.587915718918160,-5.0877319555,-0.5364697890000000,0.0025191,0.000629775
mp-29816,Ag2HgO2,-67.15682191,0.0,96,346.01931164764800,Ag8Hg4O8,0.4103000000000000,8.606011099164830,-3.3578410955000000,-0.45969821916666700,9.2E-06,2.3E-06
mp-3589,BPO4,-45.72440459,0.0,82,66.1969688803451,B1P1O4,7.2758,2.6535315382148600,-7.620734098333330,-2.7646443820833300,0.0006706,0.0006706
mp-546711,CsClO4,-26.35012031,0.012408991250000100,216,133.13629820950400,Cs1Cl1O4,5.3231,2.898054901103930,-4.391686718333330,-1.0937228763218400,0.000166,0.000166
mp-6980,ScCuS2,-23.83208382,0.0,156,73.28913678456390,Sc1Cu1S2,0.9184000000000000,3.911385050972930,-5.958020955,-1.5333770778125000,1.85E-05,1.85E-05
mp-754908,NbCrO4,-51.08661168,0.041462122321451700,119,76.052486410934,Nb1Cr1O4,1.1120000000000000,4.561149282898310,-8.514435280000000,-2.7145691916666700,2.9999182,2.9999182
mp-777999,VOF2,-155.79104125,0.005005247708385060,9,315.63715064234000,V6O6F12,1.7716,3.3124078204733200,-6.491293385416670,-2.855337132916670,6.0003599,1.0000599833333300
mp-8311,Si3NiP4,-45.65244004,0.0,121,141.19362422466500,Si3Ni1P4,0.3369,3.138289446935510,-5.706555005,-0.24289390916666800,0.0002415,0.0002415
mp-1207095,SiPAu,-14.71091389,0.0,160,62.14445366131090,Si1P1Au1,1.0027000000000000,6.841171969284010,-4.903637963333330,-0.17580527444444500,0.0018107,0.0018107
mp-17853,YGaO3,-227.69571457,0.026932728216666000,185,382.2256825292600,Y6Ga6O18,2.9043,5.386016237384250,-7.589857152333330,-3.134367122166670,0.004017,0.0006695
mp-19270,TiFeO3,-80.76417016,0.03177502499999820,161,108.5112882729630,Ti2Fe2O6,2.5730000000000000,4.6432167180245300,-8.076417016,-2.6979403196666700,3E-07,1.5E-07
mp-27463,Na5Fe3F14,-214.90824482,0.028030123636362700,136,613.482490302205,Na10Fe6F28,3.2267,2.969087943209770,-4.8842782913636400,-2.8139438658072100,30.0,15.0
mp-29931,VRe2O9,-193.53082541,0.0,36,400.9768802802630,V2Re4O18,1.8881000000000000,4.6990589823080600,-8.063784392083330,-2.178650268333330,2.0039222,1.0019611
mp-3078,CdSiAs2,-32.30455584,0.0,122,198.73228086288100,Cd2Si2As4,0.8904000000000000,4.851958749143240,-4.03806948,-0.12145933250000000,0.0006112,0.0003056
mp-38322,Mg(IO3)2,-85.63569155,0.0,4,280.7564736293750,Mg2I4O12,3.4935,4.425364279286990,-4.757538419444450,-1.4004193850000000,0.0,0.0
mp-530262,Li15Cr2N9,-560.64012281,0.0,33,980.2067608843970,Li60Cr8N36,1.3186,2.2644128185257400,-5.390770411634620,-0.7861784014423070,0.000602,0.0001505
mp-568556,Mg2B24C,-352.56832667,0.0,118,409.1030107282400,Mg4B48C2,2.6298000000000000,2.598431862062320,-6.529043086481480,-0.13153407537037000,0.0001552,7.76E-05
mp-625254,P(HO)3,-309.38071004,0.147681568166651,7,638.9335105425260,P8H24O24,4.1597,1.704805862404110,-5.524655536428570,-1.471175014047620,0.0006076,7.595E-05
mp-625475,H2SO4,-77.42253845,0.0,5,178.19043538888900,H4S2O8,6.0941,1.8279673348045700,-5.530181317857140,-1.6069318925892900,0.0035439,0.00177195
mp-633099,Sb2Pb2O7,-130.7990176,0.01376498627841190,46,321.4385471770910,Sb4Pb4O14,1.6729000000000000,7.9547103178527000,-5.945409890909090,-1.8081350131818200,0.0001294,6.47E-05
mp-675879,Ag3SI,-29.13418992,0.06362085200000010,4,247.32376322424800,Ag6S2I2,0.2770000000000000,6.480033178506960,-2.913418992,-0.25819289362500000,0.0007676,0.0003838
mp-686129,Li5TiN3,-804.62165972,0.0,1,1397.540024575690,Li80Ti16N48,1.5626000000000000,2.368619669437210,-5.587650414722220,-0.9913625119444450,0.0055896,0.00034935
mp-753533,Li3VF8,-59.99147063,0.09522420083333480,21,163.32648839152100,Li3V1F8,1.3813000000000000,2.2748819572199500,-4.999289219166670,-2.9404136850000000,0.0,0.0
mp-755391,BaNa2O2,-45.482165,0.06153622800000140,36,197.76519734263000,Ba2Na4O4,1.5213,3.615630360957870,-4.5482165000000000,-1.9310278146206900,9.3E-06,4.65E-06
mp-760580,Li2AgF3,-51.34176291,0.07663638250000120,15,141.18274768799200,Li4Ag2F6,1.9705,4.204674303012770,-4.2784802425,-2.4453404693055600,2.4E-06,1.2E-06
mp-1019378,Al3GaN4,-56.83652597,0.018786626249999800,215,87.03083195784220,Al3Ga1N4,3.7523,3.94370758687246,-7.10456574625,-1.3337153446875000,0.0,0.0
mp-1020059,LiGe2N3,-76.27536675,0.0,36,136.9555729076060,Li2Ge4N6,2.758,4.710212633799930,-6.3562805625,-0.5093700038888890,0.0001126,5.63E-05
mp-1029845,Na3Mo2N5,-283.69038885,0.0,80,641.3065653612650,Na12Mo8N20,1.9299,3.427027624924470,-7.09225972125,-0.5386260647155180,2E-07,5E-08
mp-13643,Er2Ge2O7,-328.13601343,0.0,92,579.4944366171790,Er8Ge8O28,3.7279000000000000,6.78313137919458,-7.457636668863640,-3.075071181136360,0.000116,2.9E-05
mp-18246,K6MnTe4,-76.96053816,0.00272089272727305,186,893.2718140518680,K12Mn2Te8,1.4161,2.974036382181250,-3.49820628,-1.0700596714482800,9.998498,4.999249
mp-19414,K3CrO4,-87.02894947,0.013917362187501500,121,321.21608364846600,K6Cr2O8,1.3133000000000000,2.4119890242879000,-5.439309341875,-1.9356733005000000,2.0070662,1.0035331
mp-20797,Yb(NdS2)2,-81.12786514,0.2640601989285730,20,398.0817387608320,Yb2Nd4S8,2.0038,4.92039336395692,-5.794847510000000,-2.1363197717857100,0.0004726,0.0002363
mp-27809,Ba(GeP)2,-98.04206253,0.0,105,513.8373976798280,Ba4Ge8P8,0.5152000000000000,4.453908962323310,-4.9021031265,-0.5037768158333330,0.0009334,0.00023335
mp-557773,Sc2TeO6,-203.11704638,0.0,150,329.7622898137920,Sc6Te3O18,2.9113,4.736072040981540,-7.52285356962963,-2.9257418840740700,3.18E-05,1.06E-05
mp-567636,VFeSb,-22.31658581,0.0,216,48.50763179901520,V1Fe1Sb1,0.5303000000000000,7.823725416180830,-7.438861936666670,-0.2752233500000000,2.66E-05,2.66E-05
mp-569571,Nb3Sb2Te5,-116.46663519,0.0,217,488.29474878053200,Nb6Sb4Te10,1.0930000000000000,7.891227269512670,-5.8233317595,-0.6448895345000000,3.04E-05,1.52E-05
mp-625560,H7BrO3,-100.61753611,0.01590045287878360,9,224.58621052293700,H14Br2O6,4.148,1.9956939075626900,-4.573524368636360,-1.1521699847727300,9E-07,4.5E-07
mp-757174,LiMn2F6,-155.93643384,0.014848369999996600,150,318.5619076358310,Li3Mn6F18,0.3074,3.60932876817188,-5.775423475555560,-2.931664891577270,26.9999886,8.9999962
mp-779511,Ba2MgO3,-141.75949963,0.03042368208333370,15,441.99706917320000,Ba8Mg4O12,3.5116000000000000,5.213934889802500,-5.906645817916670,-2.8697950304166700,0.0086783,0.002169575
mp-7885,AlAgS2,-17.59896812,0.07042415125000010,156,74.87495279266110,Al1Ag1S2,1.7128000000000000,4.4128726240685100,-4.39974203,-0.9384841382291660,7E-07,7E-07
mp-998615,CaTlF3,-50.53347003,0.011281006500000900,161,184.22198393895900,Ca2Tl2F6,4.6512,5.434533928779570,-5.053347003,-3.3100110171666700,0.0,0.0
mp-19765,In2HgTe4,-20.44542335,0.0,82,261.562703675973,In2Hg1Te4,1.0161000000000000,5.971593801823710,-2.920774764285710,-0.5361674007142850,0.0006145,0.0006145
mp-27791,SrBe3O4,-109.70959608,0.0,190,166.2881413611510,Sr2Be6O8,4.1268,3.5680498490720100,-6.856849755,-3.1129027464583300,0.0,0.0
mp-28769,K(SnSe2)2,-54.67503047,0.0,8,488.5195193081350,K2Sn4Se8,1.182,4.027000190157530,-3.9053593192857100,-0.8731895239107150,0.0026488,0.0013244
mp-29966,NOF,-66.16807057,0.0,19,198.5691040047930,N4O4F4,0.014600000000000200,1.639205503006360,-5.514005880833330,-0.8316942483333340,0.0012842,0.00032105
mp-3519,ZrSO,-99.93747909,0.0,198,192.3477386901180,Zr4S4O4,2.4206000000000000,4.809910036880310,-8.3281232575,-2.8474194235416700,0.0,0.0