material_id,pretty_formula,final_energy,e_above_hull,spacegroup.number,volume,full_formula,band_gap,density,final_energy_per_atom,formation_energy_per_atom,magnetism.total_magnetization,total_magnetization
mp-626799,ReH3O5,-117.76867717,0.0,1,219.85509416305600,Re2H6O10,3.8868,4.066890645653970,-6.5427042872222200,-1.6618698044444400,0.003742,0.001871
mp-686208,Li5SiN3,-750.68336094,0.0,1,1271.3114833089300,Li80Si16N48,2.1599,2.190394384744110,-5.2130788954166700,-0.8912552144907400,0.0008966,5.60375E-05
mp-752733,TiGa2O5,-112.98208719,0.07691460656249930,15,168.33790521827900,Ti2Ga4O10,2.322,5.2736630804248200,-7.061380449375,-2.6543193135416700,0.0019208,0.0009604
mp-755293,Sr4Sb2O,-30.97801105,0.0,139,218.56034944090300,Sr4Sb2O1,1.0342000000000000,4.634545272707140,-4.4254301500000000,-1.7264391073809500,0.0015121,0.0015121
mp-8258,BaAl4S7,-122.89344267,0.0,31,564.9227857082750,Ba2Al8S14,3.1887000000000000,2.761328663009740,-5.12056011125,-1.5926081764062500,0.0046888,0.0023444
mp-961693,ZrInAu,-15.96613387,0.0,216,69.4610043680287,Zr1In1Au1,0.5016000000000000,9.634347776679780,-5.322044623333330,-0.46428932333333400,0.0,0.0
mp-1284706,MgV2O4,-208.69106166,0.02585768452381030,160,313.7270505918450,Mg4V8O16,1.4898000000000000,4.026565361309910,-7.453252202142860,-2.680118457857140,3.9710474,0.99276185
mp-13978,Rb2ThF6,-53.01307582,0.0,189,162.7799996316440,Rb2Th1F6,6.286,5.273615010953830,-5.890341757777780,-3.8823639577777800,0.0,0.0
mp-17350,La2TeO6,-262.45652253,0.0,19,556.0487471602590,La8Te4O24,2.974,5.98944952651803,-7.290458959166670,-3.0036721625000000,0.0001753,4.3825E-05
mp-17426,Er2WO6,-292.4669096,0.007792250833333010,19,473.5401266797210,Er8W4O24,3.8157000000000000,8.61730125462072,-8.124080822222220,-3.3217108088888900,0.0004266,0.00010665
mp-29305,Re2PbO8,-257.63516676,0.0,157,576.2362278006950,Re6Pb3O24,3.7671000000000000,6.11734908600008,-7.807126265454550,-2.1080908581818200,0.0037816,0.0012605333333333300
mp-29798,TlBrO3,-20.00269404,0.007287747250000370,160,98.01915838176100,Tl1Br1O3,3.659,5.629236805581330,-4.000538808,-0.6440469971666670,0.0001414,0.0001414
mp-33932,NbHO3,-154.60355871,0.03363755353574410,1,235.8737322671160,Nb4H4O12,2.6175000000000000,3.996227663583840,-7.7301779355000000,-2.4747951155000000,4.71E-05,1.1775E-05
mp-35683,NaPF3,-22.10963014,0.4486882971999990,1,108.11031678827700,Na1P1F3,1.0381,1.7042899279707400,-4.421926028,-2.2050730874770100,1.0000182,1.0000182
mp-756340,TaCrO4,-108.20222886,0.02324682249996360,65,135.41141392336200,Ta2Cr2O8,1.0890000000000000,7.282740498773570,-9.016852405,-2.924240885000000,0.0,0.0
mp-23330,NaClO3,-85.47306045,0.03484653975000020,198,299.3654104053250,Na4Cl4O12,5.6597,2.3616541074254500,-4.2736530225000000,-1.082864028810350,0.0003998,9.995E-05
mp-34375,Li7OsO6,-78.12748132,0.020313638911566100,1,128.1189434455740,Li7Os1O6,0.6890000000000000,4.339488882511390,-5.5805343800000000,-1.9979920691666700,3.0000078,3.0000078
mp-35751,Zn(CN)2,-70.80413364,0.2544856300000000,102,211.20444696487400,Zn2C4N4,5.8518,1.8467415893226100,-7.080413364,0.05244560800000070,0.0009262,0.0004631
mp-36912,Pr2CdS4,-75.77509912,0.09674441214285960,122,323.8092098448400,Pr4Cd2S8,1.8822000000000000,5.358766128542300,-5.412507080000000,-1.838437434642860,0.0006874,0.0003437
mp-3839,GaCuTe2,-29.10355602,0.0,122,225.14192457353100,Ga2Cu2Te4,0.5549,5.730322789813030,-3.6379445025,-0.49546836437500000,7.58E-05,3.79E-05
mp-3881,BaZnF4,-58.67894357,0.0,36,189.2835080290550,Ba2Zn2F8,4.668700000000000,4.890456816783490,-4.889911964166670,-3.3938069125,0.0014123,0.00070615
mp-546989,V2MoO8,-79.89475333,0.029621589659091900,35,155.9343359666040,V2Mo1O8,1.3696000000000000,3.4696261497221800,-7.263159393636360,-2.126873647272730,3.56E-05,3.56E-05
mp-557403,LiFe2F6,-95.65981504,0.0,102,213.0242805197010,Li2Fe4F12,1.8873,3.62660024826429,-5.314434168888890,-2.7551215498148100,18.001008,9.000504
mp-5710,Ag3Te2Au,-73.87244246,0.0,214,586.8566062711280,Ag12Te8Au4,0.19630000000000000,8.78032772640411,-3.0780184358333300,-0.2089932008333340,0.0047413,0.001185325
mp-625367,LuHO2,-57.28962877,0.008520881979167780,4,83.0650927897953,Lu2H2O4,4.097300000000000,8.315129942028740,-7.16120359625,-3.0523039525,0.0015196,0.0007598
mp-677335,GaPO4,-41.03885982,0.0,82,95.41504436269480,Ga1P1O4,4.8469,2.8662295760215300,-6.83980997,-2.592269545138890,0.000964,0.000964
mp-752397,Ba2SrI6,-60.73956329,0.02427712361111120,136,998.07981716696,Ba4Sr2I12,3.7685,3.7390779348227500,-3.3744201827777800,-1.996918982407410,0.0130597,0.00652985
mp-961687,ZrSnPd,-20.09001741,0.0,216,65.70159720224140,Zr1Sn1Pd1,0.1828000000000000,7.995516064216090,-6.69667247,-0.7842877050000010,0.0015077,0.0015077
mp-998591,LiSnCl3,-36.12078929,0.008468296499998920,161,259.7437346135300,Li2Sn2Cl6,3.4153,2.9664751638001500,-3.612078929,-1.687657988666670,5.8E-06,2.9E-06
mvc-14232,MgNiF4,-56.22564669,0.16179969250000000,140,128.66931244500400,Mg2Ni2F8,4.3375000000000000,4.103736058193560,-4.6854705575000000,-2.912581790833330,4.0002846,2.0001423
mp-1029938,K3W2N5,-303.18052084,0.0,80,812.9746941508990,K12W8N20,2.1800000000000000,4.534523089694580,-7.5795130210000000,-0.6670205804000010,0.0051317,0.001282925
mp-1071955,AlPS4,-29.23849615,0.0,23,180.8452131538410,Al1P1S4,2.7826000000000000,1.70984775351459,-4.873082691666670,-0.9243030576388890,1.67E-05,1.67E-05
mp-28007,BaHgS2,-60.46679978,0.0,26,467.98839275748200,Ba4Hg4S8,1.3288000000000000,5.7062505005785200,-3.77917498625,-1.4067872540625000,0.0015756,0.0003939
mp-3277,BAsO4,-41.17601249,0.0,82,72.32303893247850,B1As1O4,4.4406,3.4378097245326900,-6.862668748333330,-2.1322763823611100,0.0004689,0.0004689
mp-33449,Tb5AgS8,-84.68804623,0.030059786071435100,82,292.35975434598500,Tb5Ag1S8,1.7157,6.582949857629310,-6.049146159285710,-2.115432913690480,0.0003745,0.0003745
mp-34330,MgAl2O4,-98.80342304,0.05053768785714310,160,135.6886510506820,Mg2Al4O8,4.356600000000000,3.4820556177342500,-7.05738736,-3.323776541428570,0.0001011,5.055E-05
mp-3775,Na2SiF6,-141.44494615,0.0,150,360.3853334971580,Na6Si3F18,6.997,2.599496194261370,-5.238701709259260,-3.3756752190485300,0.0003262,0.00010873333333333300
mp-623837,As(CN)3,-105.3903458,0.5101103400000000,5,291.80011234437700,As2C6N6,4.728,1.7410477948443400,-7.527881842857140,0.5101103400000010,0.0001246,6.23E-05
mp-625075,AlHO2,-51.14821614,0.16759448874999800,1,72.70467185266610,Al2H2O4,4.437800000000000,2.74020575611007,-6.3935270175,-2.47847104625,0.0003885,0.00019425
mp-756361,ZrSeO,-95.64845149,0.03540916583333240,198,204.06411833749300,Zr4Se4O4,2.1088000000000000,6.060150344336370,-7.970704290833330,-2.693179919947920,0.0020598,0.00051495
mp-756849,LiFeF4,-30.81579186,0.015399114351851900,65,69.12081851062870,Li1Fe1F4,3.1454,3.3340023117143100,-5.1359653100000000,-2.815824112222220,4.9998259,4.9998259
mp-998412,KGeBr3,-15.87304145,0.025231167999999900,8,175.64051665487300,K1Ge1Br3,2.1307,3.322678412891690,-3.17460829,-1.3661631941000000,5.9E-06,5.9E-06
mp-1008858,NdBiPd,-16.67630938,0.0,216,80.95849023323110,Nd1Bi1Pd1,0.08999999999999990,9.427722276773520,-5.558769793333330,-0.9460833500000000,0.0002167,0.0002167
mp-1020797,Y(PO3)3,-200.26463691,0.009510448365384510,9,411.576719911408,Y2P6O18,5.626800000000000,2.6291075039029900,-7.702486035000000,-3.005945444358980,0.001772,0.000886
mp-27843,Zn2Ge3O8,-306.78420786,0.002129776410257910,212,581.3440981338300,Zn8Ge12O32,2.3470000000000000,5.446922781096100,-5.899696305,-2.016907164615380,9E-07,2.25E-07
mp-28891,Li7TaO6,-85.71167856,0.032540204285712800,146,133.6292656620950,Li7Ta1O6,4.406900000000000,4.045202262857570,-6.122262754285710,-2.4946910595238100,2.89E-05,2.89E-05
mp-29362,GaCuCl4,-39.90966549,0.0,112,318.4504834181880,Ga2Cu2Cl8,1.8316,2.8687835049039500,-3.3258054575,-1.3148972354166700,0.0005865,0.00029325
mp-29515,PH2F3,-54.57061893,0.0,36,155.07026172955500,P2H4F6,6.4670000000000000,1.9271697850694300,-4.5475515775,-1.8493529943055600,2.1E-06,1.05E-06
mp-546202,Li4CO4,-50.68020072,0.3224022833333330,215,70.93511650114160,Li4C1O4,4.1878,2.429233455592650,-5.631133413333330,-1.8637649481481500,0.0,0.0
mp-550593,Li4CO4,-50.69682905,0.320554691111111,160,73.13005607340670,Li4C1O4,4.0077,2.3563219753033600,-5.632981005555560,-1.8656125403703700,0.0,0.0
mp-614803,Cs2TeO3,-57.40816438,0.0,150,334.303241735098,Cs4Te2O6,3.6403,4.3851029227745600,-4.784013698333330,-1.8311822501436800,0.0015857,0.00079285
mp-674948,VMoO5,-102.16530395,0.055546304464289900,8,180.34567051547900,V2Mo2O10,1.0581,4.1779834419620500,-7.297521710714290,-2.1071854071428600,6E-07,3E-07
mp-676002,Ba2PrF7,-60.95041114,0.04463790450000270,1,183.58796415426000,Ba2Pr1F7,6.218300000000000,4.961596984956540,-6.095041114,-4.2185217562500000,0.0032105,0.0032105
mp-755067,Cr4OF11,-96.91729327,0.037097226729166300,3,199.5382627656500,Cr4O1F11,0.7999,3.603105179444770,-6.057330829375,-2.8809921089062500,0.999938,0.999938
mp-10419,Na4ReN3,-89.96821459,0.0,9,271.36479734548000,Na8Re2N6,2.4466,3.9185750023144900,-5.623013411875,-0.4153742701508620,0.0,0.0
mp-1078724,LiAsSe2,-31.54921801,0.0,9,180.19538878805500,Li2As2Se4,0.7871000000000000,4.419295937247820,-3.94365225125,-0.7896861945052090,0.0013257,0.00066285
mp-16787,K2V3O8,-180.58668208,0.0,100,448.4442867745930,K4V6O16,2.0485,2.658794455757400,-6.945641618461540,-2.448702838153850,2.0025171,1.00125855
mp-25246,FeP2O7,-136.51749365,0.17278411916666400,4,275.84670974597700,Fe2P4O14,0.019500000000000000,2.7665545795483500,-6.8258746825,-2.139140632666670,4.0,2.0
mp-27623,Na6PbO4,-178.2738507,0.060792044772728800,217,721.3561840678360,Na24Pb4O16,1.3501000000000000,3.7672743906698600,-4.0516784250000000,-1.4433472567554900,0.0007271,0.000181775
mp-4681,NaNbO3,-153.4802321,0.012848991000000300,26,251.21713746027700,Na4Nb4O12,2.3685,4.333350384066990,-7.674011605,-2.8326689353103400,0.0013885,0.000347125
mp-504607,YInO3,-221.38888956,0.004569654874999610,185,434.53607837988600,Y6In6O18,2.0825000000000000,5.771593919309230,-7.379629652,-2.979422080333330,0.0053547,0.00089245
mp-625150,ScHO2,-60.19031351,0.0,36,86.47646697098140,Sc2H2O4,4.4261,2.9941100490422000,-7.52378918875,-2.96200989875,1.68E-05,8.4E-06
mp-625501,NaH9O5,-145.90961081,0.02823709100000030,1,282.5639986541670,Na2H18O10,4.3045,1.3170613973452500,-4.8636536936666700,-1.3195293787701200,0.0010245,0.00051225
mp-638070,LiB13C2,-219.64917325,0.0,44,247.21336621451700,Li2B26C4,2.7108,2.3040130976230000,-6.8640366640625,-0.16437558359374900,0.0009064,0.0004532
mp-675324,BaCO3,-73.93523579,0.07582380200000040,34,173.1642522391650,Ba2C2O6,4.0966000000000000,3.784660713229560,-7.393523579000000,-2.607796670000000,0.0001028,5.14E-05
mp-754764,FeOF,-72.02322721,0.09399712972222310,6,140.55713821122300,Fe4O4F4,1.1384,4.292859844837410,-6.001935600833330,-2.02711946,19.9979788,4.9994947
mp-862787,AlInSe3,-122.72910414,0.0,169,832.2298500440580,Al6In6Se18,1.6053000000000000,4.533450711007830,-4.090970138,-0.9771713394062510,0.0002533,4.22166666666667E-05
mp-1029368,Mg2VN3,-85.95967153,0.0,36,147.8654903859280,Mg4V2N6,1.8392000000000000,3.17971653707025,-7.163305960833330,-1.1281474700000000,0.0001606,8.03E-05
mp-17694,Ca5Al6O14,-356.36459127,0.0033981246572087900,36,655.9953617399610,Ca10Al12O28,4.2272,2.9680868989612700,-7.1272918254,-3.4410954874000000,0.000656,0.000328
mp-18440,Rb7NbAs4,-81.00847798,0.0,31,915.1201088188300,Rb14Nb2As8,0.7916000000000000,3.595973858411470,-3.3753532491666700,-0.4085601518750000,0.0018907,0.00094535
mp-19241,BaNiO3,-54.08140503,0.0,186,136.69485086092700,Ba2Ni2O6,1.5467,5.928568863055290,-5.408140503,-1.8199423980000000,0.0316065,0.01580325
mp-23032,CsCuCl3,-96.87017557,0.0,178,872.0591696078030,Cs6Cu6Cl18,0.5494,3.459594963361660,-3.229005852333330,-1.4893620479195400,6.0003762,1.0000627
mp-23326,Ca4Cl6O,-103.10252999,0.0,186,500.5325680602470,Ca8Cl12O2,5.2422,2.581244690068610,-4.686478635909090,-2.8964258645454500,0.0001822,9.11E-05
mp-27724,BPS4,-30.50467309,0.0,23,175.19094309431100,B1P1S4,2.2994,1.6117612325409600,-5.084112181666670,-0.646363224166666,2.94E-05,2.94E-05
mp-4524,ZnGeP2,-35.09853255,0.0,122,164.24975389037200,Zn2Ge2P4,1.2026,4.0438665315488300,-4.38731656875,-0.20997244916666700,0.0005718,0.0002859
mp-555726,NaClO3,-84.80096278,0.06845142325000000,198,379.5023232314640,Na4Cl4O12,5.7371,1.8629597444483400,-4.240048139000000,-1.049259145310350,0.0009456,0.0002364
mp-961675,ScNiP,-20.62993611,0.16880292916667300,216,45.6693190189646,Sc1Ni1P1,0.7107000000000000,4.894902714663930,-6.876645370000000,-1.034675939444440,0.0011057,0.0011057
mp-974267,KH8N3,-114.60795497,0.0,20,222.75071994902500,K2H16N6,2.8729,1.3296483371931200,-4.775331457083330,-0.42710711691666700,0.0001738,8.69E-05
mp-17862,Ag3Ge5P6,-128.98628326,0.0,217,569.5016588283840,Ag6Ge10P12,0.5766,5.08888674159482,-4.606652973571430,-0.028608521785713500,0.019218,0.009609
mp-21823,Mn(PbO2)2,-348.21374337,0.0006779516741017840,114,898.1721528426770,Mn8Pb16O32,0.7675000000000000,7.888239877665710,-6.218102560178570,-1.6519377813115800,24.0029715,3.0003714375
mp-23702,LiH2N,-76.15470504,0.0,82,136.14788036950100,Li4H8N4,3.1235,1.1203089345351700,-4.759669065,-0.592201594583333,0.0003324,8.31E-05
mp-29310,Si2H6Se,-282.56459109,0.0,96,1289.047961029300,Si16H48Se8,3.7464000000000000,1.4549196255026100,-3.9245082095833300,-0.24040867762152800,0.0357334,0.004466675
mp-4453,TlNO2,-66.90998484,0.10176549916666700,152,213.34357946874100,Tl3N3O6,1.6406000000000000,5.846630846934110,-5.575832070000000,-0.770567049583334,0.0,0.0
mp-5055,Na6MnS4,-89.49810701,0.0,186,490.9490852859250,Na12Mn2S8,1.4006000000000000,2.1723636391583900,-4.068095773181820,-1.192553362249220,9.999926,4.999963
mp-5246,KNbO3,-38.27552333,0.00013457000000372000,38,68.54760260345410,K1Nb1O3,2.1256000000000000,4.360499900626000,-7.655104666,-2.8561872656,0.0,0.0
mp-561942,Cs3TaO8,-71.41953788,0.003678357013890300,121,241.45398988974900,Cs3Ta1O8,3.1336000000000000,4.866749724717840,-5.951628156666670,-1.7509887578160900,0.0005715,0.0005715
mp-625199,ScHO2,-58.54394989,0.2057954525000000,1,91.86689684834320,Sc2H2O4,4.468100000000000,2.818426088680400,-7.31799373625,-2.7562144462500000,1.93E-05,9.65E-06
mp-625837,Be(HO)2,-115.59051808,0.0399517635000004,19,135.7158696026940,Be4H8O8,5.410900000000000,2.105804884082290,-5.779525904,-1.970168511,0.0001272,3.18E-05
mp-626755,SrH4O3,-84.35343991,0.03654134656249750,1,155.5504901257550,Sr2H8O6,4.472,2.9815941311615500,-5.272089994375,-1.7666799133333300,7E-07,3.5E-07
mp-8973,NaSi2N3,-86.68106586,0.0,36,129.5167024295620,Na2Si4N6,4.194000000000000,3.107330001293460,-7.223422155000000,-1.2068158035919500,2.01E-05,1.005E-05
mp-1025396,NbTl3Se4,-35.87746747,0.0,217,263.4027096496090,Nb1Tl3Se4,2.3069000000000000,6.44222186328496,-4.48468343375,-0.8240733849218750,0.0014369,0.0014369
mp-1190809,Li8TeN2,-82.79082914,0.0,109,267.24376256429500,Li16Te2N4,2.5239000000000000,2.6238856983033700,-3.7632195063636400,-0.6774309869696970,0.0001088,5.44E-05
mp-27235,H5N2F,-321.20782639,0.14849517317708000,19,472.1166823277090,H40N16F8,5.461400000000000,1.4646134360295100,-5.01887228734375,-0.7233599070312500,0.0027327,0.0003415875
mp-31451,ZrCoBi,-20.80899668,0.0,216,60.65123747802360,Zr1Co1Bi1,1.0123000000000000,9.83264367851283,-6.936332226666670,-0.42098131500000000,5.74E-05,5.74E-05
mp-34034,Ba8P5Br,-60.33570473,0.0,82,489.1042621642400,Ba8P5Br1,1.1637,4.52693705872631,-4.309693195,-1.2010351902976200,0.0001888,0.0001888
mp-34857,KNO2,-23.13966198,0.0,8,77.89149364203460,K1N1O2,2.5009000000000000,1.8142954770590000,-5.784915495,-1.2927115245000000,6.56E-05,6.56E-05
mp-36252,Nd5CuSe8,-78.7489631,0.06599949089284700,82,351.2851663521960,Nd5Cu1Se8,1.0482000000000000,6.69554976591437,-5.624925935714290,-1.9012677541964300,0.0007145,0.0007145
mp-3667,P2S2O3,-170.35528332,0.0,120,672.9316038086850,P8S8O12,4.0083,1.7182105201339800,-6.084117261428570,-1.6732047239881000,0.0046785,0.001169625
mp-3772,Cd(GaSe2)2,-25.30932222,0.0,82,189.71853160821300,Cd1Ga2Se4,1.3487,4.96885063625915,-3.6156174600000000,-0.8906563577678570,2E-07,2E-07
mp-3870,Sr2Nb2O7,-179.43641142,0.0,36,318.84171060816400,Sr4Nb4O14,2.8075000000000000,4.927307740135810,-8.156200519090910,-3.3008983353030300,0.0048173,0.00240865
mp-4223,Na3PO4,-372.83260721,0.0030612304687505100,114,823.5934765980100,Na24P8O32,4.1727,2.644313191973140,-5.82550948765625,-2.522419186779810,0.0,0.0
mp-5185,K2BeF4,-140.14685854,0.0,62,430.8985607986020,K8Be4F16,6.8508,2.515709978940880,-5.005244947857140,-3.3255125722857100,0.0004307,0.000107675
mp-541581,KSO3,-170.52456899,0.004387667192029100,150,549.4218553111520,K6S6O18,4.9797,2.160878648039170,-5.684152299666670,-2.1788059338916700,0.0001009,1.68166666666667E-05
mp-569450,LiB6C,-106.33421968,0.0,38,119.84832907013300,Li2B12C2,1.4217000000000000,2.3226450698551100,-6.64588873,-0.2443819560416670,3.04E-05,1.52E-05
mp-5859,AlPO4,-538.34169383,0.010953021805569600,184,1500.0763517581000,Al12P12O48,5.508,1.6199779870736300,-7.476967969861110,-3.1098475770833300,0.0001287,1.0725E-05
mp-625094,Cd(HO)2,-45.67081754,0.0,1,104.92273404054500,Cd2H4O4,1.7067,4.6347545975977300,-4.567081754,-1.321028982,0.0002436,0.0001218
mp-6920,KNO3,-29.35097067,0.0024505595000006200,160,81.69068923671680,K1N1O3,3.0036,2.0551401258445400,-5.870194134,-1.4242387566000000,0.0,0.0
mp-754389,FeOF,-53.97342002,0.09888606166666850,146,111.19688179095000,Fe3O3F3,1.7999,4.069755047177920,-5.997046668888890,-2.022230528055560,15.0000006,5.0000002
mp-755097,Fe6O5F7,-106.61265828,0.09532125962962470,38,212.00270921856900,Fe6O5F7,1.4373,4.292719216312160,-5.92292546,-2.104302765694450,29.0045789,29.0045789
mp-759069,B(HO)3,-255.65461771,0.002556150476190840,145,409.90889215979000,B6H18O18,6.0914,1.502911704718530,-6.087014707380950,-1.852664290119050,0.003222,0.000537
mp-759421,Li3VF7,-57.36904321,0.052706686363635800,160,149.98294219619000,Li3V1F7,1.9246000000000000,2.266930398102180,-5.2153675645454500,-3.1010923425,0.9999686,0.9999686
mp-770690,Mn3TeO6,-140.24940882,0.02689391799998480,146,242.9014472077860,Mn6Te2O12,0.5374000000000000,5.31055598606439,-7.0124704410000000,-1.8933591573793100,0.0004684,0.0002342
mp-773663,Na2Ti2O5,-266.32357558,0.05502994466666510,29,546.0316662042050,Na8Ti8O20,3.8807,2.6969791940097600,-7.397877099444450,-2.9822282499744600,0.0,0.0
mp-777553,LiFeF4,-182.43563425,0.08370791740740820,144,413.8513356910690,Li6Fe6F24,3.3563,3.34103986858769,-5.067656506944440,-2.7475153091666700,0.0,0.0
mp-961698,LiZnP,-9.84295185,0.1325166100000000,216,47.074954339943100,Li1Zn1P1,0.00019999999999953400,3.6446799729235400,-3.28098395,-0.42032762222222300,0.0012396,0.0012396
mp-1009084,BeSnAs2,-35.53628484,0.0,122,181.6783711455990,Be2Sn2As4,0.7035,5.073891376727240,-4.442035605,-0.17523022250000100,0.0002288,0.0001144
mp-10182,LiZnP,-10.24050168,0.0,216,47.76454743477720,Li1Zn1P1,1.3612000000000000,3.592060482586270,-3.4135005600000000,-0.5528442322222220,0.0020604,0.0020604
mp-1102523,Zn2PN3,-70.3626849,0.0,36,129.24782652910300,Zn4P2N6,2.6001000000000000,5.237032887532260,-5.863557075,-0.5536779913888890,0.0001272,6.36E-05
mp-1193265,Na3SbSe3,-97.61790967,0.0,198,751.2465986077950,Na12Sb4Se12,2.0196,3.7807130826335200,-3.4863539167857100,-1.0337379805980600,0.0024556,0.0006139
mp-12955,HoAgSe2,-76.87868526,0.0,19,401.09828319410500,Ho4Ag4Se8,1.6778000000000000,7.13266507622534,-4.80491782875,-1.439220871588540,0.0056196,0.0014049
mp-13275,NaSrP,-32.44104118,0.0,189,231.36384362367300,Na3Sr3P3,1.2349,3.0485098431373900,-3.604560131111110,-0.7961197132950190,0.0056167,0.0018722333333333300
mp-13923,SnPS3,-94.30446896,0.0,7,503.3543579139080,Sn4P4S12,2.2190000000000000,3.244563465311860,-4.715223448,-0.6505786555416670,0.0015478,0.00038695
mp-36358,Ca(GdS2)2,-122.51392529,0.020268456785716500,122,300.5017566265970,Ca2Gd4S8,1.4034,5.336217470670490,-8.75099466357143,-2.366474116785710,28.0001026,14.0000513
mp-4497,Si2N2O,-81.32052492,0.0,36,121.68849449461900,Si4N4O2,4.923500000000000,2.734179832388290,-8.132052492,-1.9195367130000000,5.96E-05,2.98E-05