material_id,pretty_formula,final_energy,e_above_hull,spacegroup.number,volume,full_formula,band_gap,density,final_energy_per_atom,formation_energy_per_atom,magnetism.total_magnetization,total_magnetization
mp-753813,Ca(ClO3)2,-83.84568579,0.012991047222219400,43,256.9164517196220,Ca2Cl4O12,5.0529,2.6755705048860000,-4.658093655,-1.183822629444450,0.0006123,0.00030615
mp-772659,Li3CrO4,-188.59753969,0.08956924031250060,91,276.62555964671600,Li12Cr4O16,0.8276000000000000,3.285155219979540,-5.8936731153125,-2.0905906040625000,3.992166,0.9980415
mp-775810,Mn3NiO8,-310.75321725,0.08765896895833160,212,539.7448330152240,Mn12Ni4O32,1.1052,4.325629355068120,-6.474025359375000,-1.489952809691090,36.0013361,9.000334025
mp-7798,MgGeN2,-100.83727038,0.0,33,193.4302070662470,Mg4Ge4N8,2.6376,4.290918322364500,-6.30232939875,-0.758754960000001,9.45E-05,2.3625E-05
mp-9270,SbIrS,-74.16105582,0.004433065833334030,29,227.7909270534190,Sb4Ir4S4,1.3185000000000000,10.090239626614200,-6.180087985,-0.7104608093750000,0.0,0.0
mp-9711,Ba2Si5N8,-229.76924602,0.0,31,387.4964128924230,Ba4Si10N16,2.8921000000000000,4.517865961092690,-7.658974867333330,-1.3410767900000000,0.0017612,0.0008806
mp-998358,MgAgF3,-22.5717018,0.03317893600000060,221,63.436080433127000,Mg1Ag1F3,2.1161,4.951780314335950,-4.51434036,-2.7580857688333300,2.03E-05,2.03E-05
mp-1019323,Th2HN3,-51.02968357,0.025252827499999200,156,86.36416875339820,Th2H1N3,1.5488,9.750180898745050,-8.504947261666670,-1.480459375,0.0005741,0.0005741
mp-1079666,Ba2CdAs2,-37.58343815,0.0,36,335.9784739113820,Ba4Cd2As4,0.39030000000000000,5.3072271618987300,-3.758343815,-0.9425301690000000,0.0006477,0.00032385
mp-1105594,La3Cu3Sb4,-104.00906386,0.0,220,483.80907749553400,La6Cu6Sb8,0.4255999999999990,7.512404196634500,-5.2004531930000000,-0.9150885645000000,0.0006084,0.0003042
mp-28423,Ga2TeSe2,-37.52875114,0.0,109,303.9147678894280,Ga4Te2Se4,1.9166000000000000,4.643885191084080,-3.7528751140000000,-0.7878119279375,0.0007317,0.00036585
mp-30293,Sr2GeSe4,-62.19693758,0.0,40,421.0637588230530,Sr4Ge2Se8,2.1187000000000000,4.446258140288580,-4.442638398571430,-1.571544016815480,0.0003945,0.00019725
mp-30908,Ag3PSe4,-57.46775941,0.0,31,413.77023007010500,Ag6P2Se8,0.1744000000000000,5.3810342076971600,-3.591734963125,-0.34090790971354100,7.47E-05,3.735E-05
mp-34903,MgGeP2,-36.5494433,0.013523990500000400,122,180.33418762750100,Mg2Ge2P4,1.5225,2.926203255898230,-4.5686804125,-0.30620218291666700,0.0001693,8.465E-05
mp-35264,Pr5AgSe8,-78.26552773,0.015914963909972700,82,364.7611393112400,Pr5Ag1Se8,1.5589,6.574060960278430,-5.590394837857140,-1.9526560128869000,0.0009811,0.0009811
mp-504482,AlInS3,-137.93706009,0.0,169,731.5670360715320,Al6In6S18,2.3873,3.2412550825548600,-4.597902003,-1.1183801708750000,0.0001522,2.53666666666667E-05
mp-558728,Cs3Li2F5,-43.07264965,0.043857322999999200,42,204.1370601686710,Cs3Li2F5,5.7273,4.128959441962320,-4.307264965,-2.9321201962959800,0.0025523,0.0025523
mp-676799,Ag8GeTe6,-46.51604417,0.03679873916666530,1,412.45232668032600,Ag8Ge1Te6,0.07419999999999980,6.848997970441340,-3.1010696113333300,-0.19365084722222200,0.0004447,0.0004447
mp-763007,Mn2OF3,-118.10095874,0.04944131993055660,38,226.4679698726110,Mn6O3F9,0.09840000000000000,4.0226078017975600,-6.561164374444440,-2.628259625838120,27.0030094,9.001003133333330
mp-770865,Mn3SnO8,-328.35738929,0.08873937833333300,212,602.7157944796870,Mn12Sn4O32,1.7889000000000000,4.535098888647310,-6.840778943541670,-1.7925034626077600,36.0024916,9.0006229
mp-777233,BaYF5,-182.47079978,0.059883107857137600,4,483.3701168428610,Ba4Y4F20,6.6724000000000000,4.414062190193320,-6.516814277857140,-4.283551880595240,0.000451,0.00011275
mp-850878,Fe4O5F3,-72.6865902,0.09837299812500340,38,136.30668301737100,Fe4O5F3,0.13340000000000000,4.390189235853530,-6.0572158500000000,-1.848109539375,19.0000739,19.0000739
mp-9575,LiBeSb,-21.01961352,0.017806530000000100,186,102.23224797449700,Li2Be2Sb2,0.9076000000000000,4.4736983335012400,-3.50326892,-0.308156596111111,0.0,0.0
mp-1019893,La3Si6N11,-330.919136,0.0,100,512.7120498403290,La6Si12N22,3.0151000000000000,4.788815463167660,-8.2729784,-1.5184609195000000,0.0003775,0.00018875
mp-15687,KZnAs,-8.43397655,0.007713185000000070,187,82.70521758178220,K1Zn1As1,0.20200000000000000,3.6025381087044600,-2.811325516666670,-0.4682385293333330,0.0003772,0.0003772
mp-17297,Na2GeF6,-128.63771565,0.0,150,383.1393311701350,Na6Ge3F18,5.7876,3.024418722251740,-4.764359838888890,-2.9904762559003800,0.0023511,0.0007837
mp-29168,Rb3BiSe3,-95.61784691,0.0,198,1120.7465157603800,Rb12Bi4Se12,2.1254,4.1619990196188000,-3.4149231039285700,-1.14301296671875,0.0,0.0
mp-36053,SiPN3,-156.30609712,0.02332735133333410,9,228.86785317555900,Si4P4N12,3.7544000000000000,2.9335046770286800,-7.815304856,-0.8622845956666670,0.0015683,0.000392075
mp-3606,MnSiN2,-135.08554372,0.13047514312499900,33,178.05766881304600,Mn4Si4N8,0.5979000000000000,4.142055464109430,-8.4428464825,-0.8082666919827590,19.9993823,4.999845575
mp-558879,OsOF4,-263.23231421,0.01308678194445000,19,747.7641034499900,Os8O8F32,0.5957000000000000,5.013798721663770,-5.484006546041670,-1.9362993577083300,6E-07,7.5E-08
mp-560869,K3VO4,-184.19232095,0.0,198,605.8670537663810,K12V4O16,4.048500000000000,2.545995047563570,-5.7560100296875,-2.2861416633125000,0.0007502,0.00018755
mp-998560,InSnCl3,-16.88355041,0.02009712699999970,8,185.53527824765200,In1Sn1Cl3,2.4702000000000000,3.04198558387436,-3.3767100820000000,-1.2837369690000000,6.3E-05,6.3E-05
mp-1215629,Zn3PBr3,-18.7844509,0.0,6,192.73544580215300,Zn3P1Br3,1.6198000000000000,4.022751906211370,-2.6834929857142900,-0.8975884122619050,0.0001089,0.0001089
mp-14649,Tb2Ge2O7,-327.78290365,0.0,92,598.4536149750930,Tb8Ge8O28,3.7453000000000000,6.383251751443910,-7.449611446590910,-3.0549282697727300,1.75E-05,4.375E-06
mp-21489,Rb2PbO3,-55.55668217,0.0021816633333333600,36,257.0515202585310,Rb4Pb2O6,1.529,5.505603093006620,-4.629723514166670,-1.5536238091666700,5.18E-05,2.59E-05
mp-23321,Sr4Cl6O,-102.15216738,0.0,186,580.2696587337660,Sr8Cl12O2,4.555500000000000,3.3149412363620500,-4.643280335454550,-2.96817535560606,0.0041075,0.00205375
mp-23349,Bi(BO2)3,-75.25068249,0.001339477999999340,5,119.91714077092000,Bi1B3O6,4.0085,4.672244107487620,-7.525068249,-2.5756706837500000,0.0,0.0
mp-28558,RbGeBr3,-63.98614948,0.0,33,742.785343400622,Rb4Ge4Br12,1.9851,3.5573955530283300,-3.1993074740000000,-1.4168353530000000,0.0009327,0.000233175
mp-36066,PNO,-44.18052098,0.0009309883333319390,9,77.46432328119330,P2N2O2,5.2455,2.61435042191766,-7.363420163333330,-1.4801673511111100,4.58E-05,2.29E-05
mp-38162,Sm5CuSe8,-78.4167148,0.07561572839285450,82,341.75887664151500,Sm5Cu1Se8,1.0113000000000000,7.03081431855938,-5.601193914285710,-1.8952346881250000,0.1255629,0.1255629
mp-4666,CdSiP2,-35.92478507,0.0,122,173.748115670623,Cd2Si2P4,1.4257,3.8695810812588400,-4.49059813375,-0.1968959354166660,8E-06,4E-06
mp-546007,La2MoO6,-71.13961219,0.06017013388889760,121,151.97586323886200,La2Mo1O6,3.6515000000000000,5.132616409458690,-7.904401354444440,-3.117576546666670,0.0004036,0.0004036
mp-556020,Li3AlF6,-211.75933139,0.005570882750002500,33,399.5375198108980,Li12Al4F24,7.915100000000000,2.689778405121600,-5.29398328475,-3.47706146125,0.0063407,0.001585175
mp-607953,FeSeBr7,-52.53342949,0.0,7,668.8650345823160,Fe2Se2Br14,0.0826,3.4465397481452800,-2.9185238605555600,-0.7311405077604170,9.9996279,4.99981395
mp-626506,NaHO,-26.83094644,0.07205995166666670,8,67.47721433424350,Na2H2O2,2.8020000000000000,1.9685685950673300,-4.471824406666670,-1.4797536255172400,0.0005733,0.00028665
mp-626620,RbHO,-26.34858752,0.0,36,102.63442356860800,Rb2H2O2,3.3366,3.3159239835659100,-4.391431253333330,-1.5133575458333300,8.47E-05,4.235E-05
mp-752955,WOF4,-34.68644272,0.0,79,101.12247539397200,W1O1F4,4.4119,4.529472719372130,-5.781073786666670,-2.684573229166670,0.0001154,0.0001154
mp-754676,LiMnF3,-57.73162293,0.024485326999999800,182,113.94086423866400,Li2Mn2F6,3.6582000000000000,3.4648735569143000,-5.773162293,-3.0228872807528700,9.9999775,4.99998875
mp-1029469,ZnSnN2,-87.1247132,0.0,33,223.1871745439010,Zn4Sn4N8,0.12300000000000000,6.313160928023310,-5.445294575,-0.1402182462500010,7.49E-05,1.8725E-05
mp-27277,PCl3O,-85.19756652,0.0,33,590.0043965137280,P4Cl12O4,4.6845,1.7261840533509700,-4.259878326,-1.5843036276666700,0.0,0.0
mp-27462,AlPS4,-58.41819496,0.004899778333328440,16,374.4373167769410,Al2P2S8,2.671,1.6516397676739500,-4.868182913333330,-0.9194032793055560,0.0,0.0
mp-37267,NaYF4,-111.9632597,0.012893874722215600,174,226.8071616040050,Na3Y3F12,7.3763000000000000,4.126819557052350,-6.2201810944444400,-3.955695714980840,0.0038329,0.0012776333333333300
mp-37436,Li7SbO6,-73.2998415,0.008746312142857700,1,131.66465721625900,Li7Sb1O6,3.4428,3.359091423483820,-5.235702964285710,-2.160186725952380,7.6E-06,7.6E-06
mp-625509,H3BrO,-20.69862667,0.0,160,70.39687314535770,H3Br1O1,4.4205000000000000,2.3335200303703500,-4.1397253340000000,-1.0313109275000000,2.34E-05,2.34E-05
mp-675101,Ca5NbN5,-146.46832267,0.0,8,367.1356173906550,Ca10Nb2N10,0.7195,3.2866517506042800,-6.657651030454550,-1.202489297272730,6.03E-05,3.015E-05
mp-753227,LiCrO2,-110.33282827,0.03404317312500020,186,149.09850067530400,Li4Cr4O8,2.963,4.051083379712150,-6.895801766875,-2.374578680208330,0.0,0.0
mp-753398,WOF3,-120.75656772,0.0,19,291.5787833359320,W4O4F12,2.3593,5.850684991773240,-6.037828386,-2.6119235105,3.9998782,0.99996955
mp-771147,Dy2P4O13,-292.9252767,0.0056523561842141100,20,537.6757467921980,Dy4P8O26,5.638800000000000,4.057415437326510,-7.708559913157890,-3.168597977807020,0.0009835,0.00049175
mp-1025340,Cu2WSe4,-37.46700254,0.0,121,179.31369387387700,Cu2W1Se4,1.4153000000000000,5.804238200474860,-5.352428934285710,-0.6021166884821430,0.0001247,0.0001247
mp-11653,BPO4,-136.47100879,0.039011387777774700,152,180.12192361100600,B3P3O12,6.998400000000000,2.925614069682690,-7.581722710555560,-2.725632994305560,0.0,0.0
mp-22955,LiIO3,-46.20057208,0.00901836050000071,173,140.42036648121200,Li2I2O6,3.7485,4.300779518180780,-4.620057208,-1.3768935086666700,0.0001212,6.06E-05
mp-28369,GeH3Cl,-35.05762826,0.0,36,191.4350956727190,Ge2H6Cl2,4.7582,1.927690634969140,-3.505762826,-0.40601429600000000,0.000683,0.0003415
mp-29845,CsHgCl3,-114.1776078,0.0,145,1577.8243530103600,Cs9Hg9Cl27,1.9873000000000000,4.166217549145510,-2.5372801733333300,-1.5567416299195400,0.0665143,0.007390477777777780
mp-31218,K3FeO2,-101.69895773,0.07217939516666670,92,561.6337504839660,K12Fe4O8,1.2539000000000000,2.426070905660520,-4.2374565720833300,-1.2262686885833300,0.0001868,4.67E-05
mp-38442,CsNd5Se8,-77.39015844,0.028645964776785600,82,383.2845006431050,Cs1Nd5Se8,1.6467,6.4370497338578800,-5.52786846,-2.0330534426200700,0.0008523,0.0008523
mp-541462,SrTa4O11,-301.86182963,0.0,182,430.8556289951820,Sr2Ta8O22,3.5575,7.611015541502330,-9.4331821759375,-3.4337337366666700,0.0003523,0.00017615
mp-5461,Rb3TaO8,-71.66677436,0.0010731156250001200,121,213.8447688280850,Rb3Ta1O8,3.0526,4.390006458186980,-5.972231196666670,-1.7503088727083300,0.000361,0.000361
mp-571452,KPSe3,-117.6450948,0.0019635978333338900,152,926.4810904580180,K6P6Se18,1.3151,3.3009150155829700,-3.92150316,-0.8024159826729170,0.0002438,4.06333333333333E-05
mp-7290,Er3GaS6,-117.49598627,0.0,36,451.25277305436200,Er6Ga2S12,2.1932,5.621989551440440,-5.8747993135000000,-2.0216041481250000,0.0005049,0.00025245
mp-754233,Li5CrO5,-245.51052257,0.0683553347727246,5,415.6034109579950,Li20Cr4O20,1.2659000000000000,2.664162036013420,-5.5797846038636400,-2.0794694376515200,1.9460157,0.486503925
mp-1102430,SbTeIr,-69.42753117,0.0,198,273.35439461915200,Sb4Te4Ir4,0.966899999999999,10.729746787991200,-5.7856275975000000,-0.6200500675000010,0.0,0.0
mp-20546,Ba2In2O5,-104.92525891,0.0,46,319.17556961669300,Ba4In4O10,1.0524,6.079609355889570,-5.8291810505555600,-2.4240572566666700,0.000495,0.0002475
mp-23418,Hg3(SCl)2,-31.18586426,0.0,199,392.0608912164050,Hg6S4Cl4,1.9402,6.241352682279900,-2.2275617328571400,-0.7065597116071430,0.0074897,0.00374485
mp-3167,Hg2GeSe4,-20.85474403,0.0,82,198.582330671359,Hg2Ge1Se4,0.6279000000000000,6.603111540177300,-2.979249147142860,-0.5041013620535710,0.0003456,0.0003456
mp-33985,Ba(InTe2)2,-25.34553578,0.014404039285714500,97,273.96601649157600,Ba1In2Te4,1.3432,5.317796549172280,-3.6207908257142900,-1.005427681428570,5.22E-05,5.22E-05
mp-35822,Li4SiO4,-107.81179915,0.047526349444441800,1,173.16062636080500,Li8Si2O8,5.087000000000000,2.2985686267275300,-5.989544397222220,-2.6445611187037000,0.0001147,5.735E-05
mp-38487,Li7BiO6,-70.54743801,0.0,1,140.59469181295100,Li7Bi1O6,1.8615,4.175879578843860,-5.039102715000000,-1.9806555430952400,0.0004256,0.0004256
mp-4182,CrAgS2,-45.3245861,0.0035696916666774200,160,147.9080567251230,Cr2Ag2S4,0.7568000000000000,5.029493241696320,-5.6655732625,-0.7274474607291660,0.0,0.0
mp-562283,GePb3O5,-51.78084083,0.09668905134259200,35,160.24915070020600,Ge1Pb3O5,1.9847000000000000,8.02282433129631,-5.753426758888890,-1.635007415555560,6.36E-05,6.36E-05
mp-5709,Tl3PO4,-89.4577706,0.0,173,354.7620206215350,Tl6P2O8,2.6408000000000000,6.629024253391100,-5.5911106625,-1.897976166666670,0.0007435,0.00037175
mp-571242,Rb2CoCl4,-105.50968055,0.0013371835714304200,33,896.1879165178780,Rb8Co4Cl16,0.7314000000000000,2.754736898486770,-3.7682028767857100,-1.7671267939285700,11.9151297,2.978782425
mp-625318,Al(HO)3,-81.91483802,0.025481411071430300,1,108.43490085091300,Al2H6O6,5.0579,2.3890455079072800,-5.851059858571430,-2.0358260042857100,0.0,0.0
mp-753467,TaCrO4,-108.48119073,0.0,109,136.09829916791300,Ta2Cr2O8,2.4948,7.245984661124680,-9.040099227500000,-2.9474877075,5.9999876,2.9999938
mp-755018,RbTaO3,-40.52916963,0.05256697949999990,160,68.49564662455090,Rb1Ta1O3,2.5625,7.622331586751530,-8.105833926000000,-2.9815949825000000,0.0004586,0.0004586
mp-760367,VOF3,-58.59091194,0.05364636950000000,5,137.96643699567000,V2O2F6,2.6510000000000000,2.983345170531270,-5.8590911940000000,-2.660430398500000,0.0003803,0.00019015
mp-996956,CuHO2,-39.96126391,0.009622543593750700,31,73.40664879405840,Cu2H2O4,0.6060000000000000,4.368258172555340,-4.99515798875,-0.9916943075000000,1.4E-06,7E-07
mp-1100405,ScTeRh,-20.07291013,0.0,216,63.11078942506400,Sc1Te1Rh1,0.4865000000000000,7.247800893219990,-6.6909700433333300,-1.2182774083333300,1.49E-05,1.49E-05
mp-1212164,Hg3(SeF)2,-34.28670562,0.0,199,321.13975472863800,Hg6Se4F4,1.9752,8.249306324954170,-2.4490504014285700,-1.0407901178125000,0.0002916,0.0001458
mp-16433,Ca2Ga2O5,-112.57538255,0.03351506962962870,46,225.58705770259300,Ca4Ga4O10,2.3148000000000000,4.410677180516050,-6.254187919444440,-2.7683882716666700,0.0011246,0.0005623
mp-19343,Co4B6O13,-171.39447767,0.12115721743961000,217,214.6077938723350,Co4B6O13,3.0066,3.9352493959878000,-7.45193381173913,-2.3497549043478300,2.5E-06,2.5E-06
mp-24064,PHF2,-73.54333367,0.11477746954166900,19,248.80207761928400,P4H4F8,3.8275,1.86818451248479,-4.596458354375,-1.7149617327083300,0.0040141,0.001003525
mp-3933,Mg2PN3,-78.4774735,0.0,36,132.60848357553700,Mg4P2N6,3.5372000000000000,3.0454757954518300,-6.539789458333330,-1.116398228055560,0.0,0.0
mp-559826,ErCuS2,-89.62415726,0.0058426362499997,19,329.77412424198500,Er4Cu4S8,1.7557000000000000,5.940442910533470,-5.60150982875,-1.6180535253125000,0.0023609,0.000590225
mp-675645,Tb2PbS4,-81.05716476,0.06217399035714340,122,311.12595015143000,Tb4Pb2S8,2.0811,6.973689847791730,-5.789797482857140,-1.859057663214290,3.89E-05,1.945E-05
mp-766094,NbO2F,-129.91202983,0.06686796812500080,19,253.91529864308600,Nb4O8F4,2.8995000000000000,3.764365881131290,-8.119501864375,-3.1013253600000000,0.0,0.0
mp-769079,ScGaO3,-226.29071168,0.00453056070833302,185,335.9502565271750,Sc6Ga6O18,3.1751,4.824494599470190,-7.543023722666670,-3.114334094166670,0.0002928,4.88E-05
mp-777972,LiMnF3,-230.81604417,0.027246515749999900,33,496.5098535132230,Li8Mn8F24,3.4757,3.180526507250840,-5.77040110425,-3.0201260920028700,40.0073808,5.0009226
mp-8630,SbIrS,-74.21425261,0.0,198,227.4576584810790,Sb4Ir4S4,1.5120000000000000,10.105023739742700,-6.184521050833330,-0.7148938752083340,0.0,0.0
mp-866943,Ca2SnS4,-134.37616383,0.10179174785714300,91,741.5177936921810,Ca8Sn4S16,1.6421000000000000,2.9302358342385900,-4.799148708214290,-1.5770671250000000,0.0023778,0.00059445
mvc-3102,MgCuF4,-55.79759656,0.08761073333333510,140,130.6990113432660,Mg2Cu2F8,1.0793000000000000,4.163311988516720,-4.6497997133333300,-2.7335659483333300,2.0031467,1.00157335
mp-14444,Hf(PS3)2,-103.49017978,0.0,43,524.0584471352200,Hf2P4S12,2.3279,2.742926925920920,-5.7494544322222200,-1.0178440917129600,0.0032599,0.00162995
mp-30390,HoSnAu,-14.41747793,0.0,216,75.81119006498860,Ho1Sn1Au1,0.02490000000000060,10.527027925263500,-4.805825976666670,-0.8505385550000010,0.0007695,0.0007695
mp-606393,NbBr3O,-106.99635239,0.0038852464999994400,113,569.7441319600290,Nb4Br12O4,1.9750000000000000,4.064234525837840,-5.3498176195,-1.8156046750000000,6.2E-06,1.55E-06
mp-675677,Yb(SmS2)2,-84.67286453,0.0010949625000025200,122,301.4880999793640,Yb2Sm4S8,2.0582,6.6316231316788800,-6.048061752142860,-2.403693178214290,0.0003642,0.0001821
mp-754913,Li2CrO2,-59.87922099,0.12007843099999900,36,104.76356407231500,Li4Cr2O4,1.4998,3.102766073432040,-5.987922099,-1.989159056333330,8.000156,4.000078
mp-756638,NbRhO4,-95.56875125,0.014574650863092800,109,140.6263625651390,Nb2Rh2O8,0.9258000000000000,6.1357455820304600,-7.964062604166670,-2.2124864491666700,3.6E-06,1.8E-06
mp-756873,Li2CrO4,-85.28190058,0.07038659095238130,1,184.02487507933500,Li4Cr2O8,2.5025000000000000,2.343853498708220,-6.091564327142860,-2.017887580952380,0.0,0.0
mvc-667,Te(WO4)2,-74.19689172,0.18527684829545900,1,173.487950428137,Te1W2O8,2.4121000000000000,5.9656755197626200,-6.745171974545450,-1.8114227100000000,0.0005145,0.0005145