material_id,pretty_formula,final_energy,e_above_hull,spacegroup.number,volume,full_formula,band_gap,density,final_energy_per_atom,formation_energy_per_atom,magnetism.total_magnetization,total_magnetization
mp-541032,Te7As5I,-46.88459366,0.02882935064102640,8,411.81772799638200,Te7As5I1,0.5563000000000000,5.623785441139460,-3.6065072046153800,-0.03391403923076940,0.0054886,0.0054886
mp-556163,Zn2SiO4,-83.87647658,0.02575357857142980,122,164.96091650463800,Zn4Si2O8,2.6817,4.487559749071900,-5.991176898571430,-2.4213704328571400,4.52E-05,2.26E-05
mp-558412,H2CO2,-121.55842575,0.1289248260000030,33,215.06879407175600,H8C4O8,4.8672,1.421441764714800,-6.0779212875,-1.1710903275,0.0019775,0.000494375
mp-625826,Zn(HO)2,-94.41339329,0.08011985200000280,19,205.34068077921100,Zn4H8O8,2.6226000000000000,3.2160583895726900,-4.7206696645,-1.4072461225000000,0.0,0.0
mp-626716,KHO,-26.8315591,0.0032411483333332200,4,89.80915818867970,K2H2O2,3.6246,2.074746249839340,-4.471926516666670,-1.5505645176666700,0.0,0.0
mp-640889,Tm(CuTe)3,-119.4456854,0.0,31,667.725669109604,Tm4Cu12Te12,0.4005000000000000,7.384697720589390,-4.265917335714290,-0.7034375895238100,0.0015139,0.000378475
mp-754802,Li5(FeO2)4,-99.90524868,0.08187333928921440,160,158.0888092474410,Li5Fe4O8,1.1425000000000000,4.05532344757741,-5.876779334117650,-1.848053676862750,18.9994217,18.9994217
mp-755693,LiFeF4,-91.41982385,0.07248532157407530,160,256.7064538357640,Li3Fe3F12,3.3323,2.693141897197390,-5.078879102777780,-2.758737905,14.9970826,4.999027533333330
mp-756401,TaAsO4,-97.5097625,0.09217867437499730,36,163.50877183521100,Ta2As2O8,2.9152000000000000,6.496920948003670,-8.125813541666670,-2.532356865833330,0.0027135,0.00135675
mp-764074,Na2FeO3,-62.93146785,0.0006706658333328620,9,146.32242178980300,Na4Fe2O6,1.8659,3.4005247780995400,-5.2442889875,-1.637298645517240,7.9997472,3.9998736
mp-767409,Li5SbS,-24.00478263,0.05174431857142860,123,118.75085040347300,Li5Sb1S1,0.6476000000000000,2.636287901622820,-3.4292546614285700,-0.9842453128273810,0.0002942,0.0002942
mp-14091,AlAgSe2,-32.09409028,0.0,122,202.9421253026120,Al2Ag2Se4,1.7174000000000000,4.791076152756860,-4.011761285,-0.8552725878385420,0.0001698,8.49E-05
mp-23333,Hg3Cl4O,-69.92004259,0.0009795700781252140,198,867.5013991057320,Hg12Cl16O4,1.4906000000000000,5.8158503963818600,-2.1850013309375,-0.9212327384375000,0.0007636,0.0001909
mp-28405,S(ClO)2,-42.86644351,0.0,43,259.940556841354,S2Cl4O4,3.7891,1.724414446399560,-4.2866443510000000,-1.3617553116250000,0.0027427,0.00137135
mp-31703,CrOF3,-109.87357111,0.1924429175000010,76,259.24760737498900,Cr4O4F12,2.2005,3.202374106429330,-5.4936785555,-2.2409894800000000,4.000892,1.000223
mp-38117,Ba(GaTe2)2,-26.04121548,0.0,97,254.2068552299120,Ba1Ga2Te4,1.0688000000000000,5.141999484988380,-3.72017364,-1.025835555,0.000277,0.000277
mp-556100,Si(Sn3O4)2,-185.58666927,0.009004331000003420,186,575.6797235747720,Si2Sn12O16,1.8998,5.0094300577932600,-6.186222309,-1.948193429666670,0.0008239,0.00041195
mp-560151,AlPO4,-134.55405829,0.012695531111125600,181,262.0230085863320,Al3P3O12,5.4983,2.318585190179180,-7.4752254605555600,-3.108105067777780,0.0,0.0
mp-569779,ScSbPd,-18.76831775,0.0,216,64.81861825239440,Sc1Sb1Pd1,0.07800000000000030,6.997261968796530,-6.256105916666670,-1.0423218650000000,2.36E-05,2.36E-05
mp-644223,LiBH4,-47.72374077,0.04710132833333350,186,101.53164437236200,Li2B2H8,6.757100000000000,0.7125420792906040,-3.9769783975,-0.40310859458333400,0.0010459,0.00052295
mp-768232,Rb3SbO3,-129.26725357,0.0,198,696.0136081355510,Rb12Sb4O12,3.1610000000000000,4.066920400481270,-4.6166876275,-1.7804752742857100,0.0005412,0.0001353
mp-768907,Sr3TeO6,-61.05077445,0.022140137499999200,146,155.94430452787600,Sr3Te1O6,3.0770000000000000,5.179925351189740,-6.105077445,-2.7273227130000000,2.25E-05,2.25E-05
mp-1019379,AlB3N4,-64.73659446,0.3607763212499990,215,56.669476820013100,Al1B3N4,3.5993000000000000,3.382682590395830,-8.0920743075,-1.1313579521875000,0.0,0.0
mp-17008,CaTeO3,-179.53514889,0.010147799599987900,4,542.8140559192310,Ca6Te6O18,3.2993000000000000,3.9586899262880300,-5.984504963,-2.3981481980000000,0.0020457,0.00034095
mp-26940,MnPO4,-176.83803114,0.06600643250000180,4,348.75395815556500,Mn4P4O16,0.8719,2.8550836020998100,-7.3682512975,-2.376390994377390,16.0015774,4.00039435
mp-28918,Sb2WO6,-119.98927537,0.0,4,265.5706029352120,Sb4W2O12,1.1942,6.544803817515510,-6.666070853888890,-1.9611936338888900,0.0131435,0.00657175
mp-29379,K3BiTe3,-88.76218154,0.0,198,1170.4709274257400,K12Bi4Te12,1.5607,4.023841034311620,-3.1700779121428600,-0.972201634857143,0.0001276,3.19E-05
mp-31114,Ho3GaO6,-156.84201345,0.003974255800001100,36,266.9634544242520,Ho6Ga2O12,3.5644,8.216879415494940,-7.8421006725,-3.60799180625,0.0011553,0.00057765
mp-5342,GaAgS2,-32.33766304,0.0,122,177.6853322767800,Ga2Ag2S4,0.9622000000000000,4.517958693407410,-4.04220788,-0.7603199401041670,7.91E-05,3.955E-05
mp-554144,K3Mn2F7,-64.56251296,0.0,139,198.62362261092100,K3Mn2F7,1.0476,3.011018683719460,-5.380209413333330,-3.0080777301968400,9.999322,9.999322
mp-754718,NaCuO2,-38.03305326,0.08640139624999940,36,115.34916349912000,Na2Cu2O4,0.9315000000000000,3.41279081808939,-4.7541316575,-1.2682181641379300,0.0004058,0.0002029
mp-774146,W(BrO)2,-53.88397871,0.06260117566666160,26,263.1843128638800,W2Br4O4,0.9203,4.740223152782640,-5.3883978710000000,-1.5388150180000000,0.0019716,0.0009858
mp-850964,Li3CrO4,-94.33856793,0.08708186000000050,36,151.68657790195000,Li6Cr2O8,1.3040000000000000,2.99551190956589,-5.896160495625,-2.0930779843750000,1.9995748,0.9997874
mp-1009828,BaSiC,-14.81576833,0.8536136567142860,107,93.58578216934880,Ba1Si1C1,0.39060000000000000,3.148108057568580,-4.938589443333330,0.5850990733333340,0.0001056,0.0001056
mp-1029387,TaZn2N3,-84.81317169,0.0,36,156.44552526143600,Ta2Zn4N6,2.3585000000000000,7.510287558862870,-7.0677643075,-0.6838060366666670,8.47E-05,4.235E-05
mp-1101160,Zr3N2O3,-155.23631767,0.0,8,235.44356572251800,Zr6N4O6,2.5487,4.932504967527270,-9.702269854375,-2.9051480100000000,0.0005399,0.00026995
mp-1147776,K3VSe4,-34.01977953,0.0,121,321.70098340494600,K3V1Se4,1.3264,2.498679876297610,-4.25247244125,-1.188628838546880,0.0006121,0.0006121
mp-11582,LiGaSe2,-62.28375691,0.0,33,388.1490267213630,Li4Ga4Se8,2.0680000000000000,4.014292136086450,-3.892734806875,-1.1465243457552100,0.0002118,5.295E-05
mp-11869,HfSnPd,-21.30515131,0.0,216,64.4212848669857,Hf1Sn1Pd1,0.0976000000000008,10.40380953973440,-7.101717103333330,-0.7195029316666670,0.0006101,0.0006101
mp-12904,HoAgTe2,-34.66293767,0.0,113,237.89531528768200,Ho2Ag2Te4,1.3134000000000000,7.370991467458960,-4.33286720875,-1.1184755254166700,0.0024939,0.00124695
mp-31235,BaNaBi,-28.25211491,0.0,189,341.99662325608800,Ba3Na3Bi3,0.23560000000000000,5.379284487686680,-3.139123878888890,-0.7619470677394640,0.0008383,0.00027943333333333300
mp-35035,KCN,-19.43902577,0.13888515166666000,44,67.08937010237000,K1C1N1,5.3217,1.6116884617342100,-6.479675256666670,-0.37545039933333300,3.07E-05,3.07E-05
mp-4175,ZnSnP2,-33.72054893,0.0,122,186.2393895472950,Zn2Sn2P4,0.7059000000000000,4.387934014149060,-4.21506861625,-0.1910884966666670,7.13E-05,3.565E-05
mp-4533,Na2SiO3,-74.09736448,0.0,36,159.58061291840600,Na4Si2O6,3.8634000000000000,2.540293241363000,-6.174780373333330,-2.6992391030172400,0.0,0.0
mp-756156,Rb2ZrO3,-79.58787579,0.0,36,243.96210697416100,Rb4Zr2O6,3.541,4.222206063872520,-6.6323229825,-2.7503810175,0.0031329,0.00156645
mp-758560,FeOF,-36.51896078,0.009439267222222550,31,68.72819830527110,Fe2O2F2,1.2488000000000000,4.389698183648910,-6.086493463333330,-2.1116773225000000,0.0,0.0
mp-767471,Li5SbS,-94.9800379,0.08885476928571470,4,539.3234524067290,Li20Sb4S4,1.2902,2.3218825647508000,-3.3921442107142900,-0.9471348621130950,0.0,0.0
mvc-2858,Mg(SbO2)4,-76.16553198,0.18590394798077600,8,245.0251966556530,Mg1Sb4O8,2.1268000000000000,4.332817169165880,-5.858887075384620,-1.8431968407692300,0.0087283,0.0087283
mp-11390,LiGaSi,-10.8519076,0.0706199283333313,216,50.99762666495600,Li1Ga1Si1,0.1975000000000000,3.41075944768119,-3.6173025333333300,-0.1395248969444440,1.1E-06,1.1E-06
mp-15573,Tl3AsO4,-80.47698123,0.0,173,387.79584907969100,Tl6As2O8,2.5882,6.440709070488630,-5.029811326875,-1.4309498437500000,0.0003824,0.0001912
mp-26910,Cr(PO3)3,-191.95155903,0.02532286653847040,188,362.50434406975600,Cr2P6O18,3.2095000000000000,2.6468628440473300,-7.382752270384620,-2.594859652307690,5.9998151,2.99990755
mp-27996,H2SeO3,-121.40361133,0.003444039999997100,19,296.0296538938380,H8Se4O12,4.498600000000000,2.89385195843384,-5.0584838054166700,-1.2144427083072900,0.0010537,0.000263425
mp-35082,BH6N,-75.23146022,0.03978411437499400,31,134.43113523727000,B2H12N2,6.0653,0.7625183374882660,-4.70196626375,-0.3255608930208330,0.0002276,0.0001138
mp-35777,Mg(InTe2)2,-23.03248527,0.004733600000003340,121,255.6185864554100,Mg1In2Te4,0.6792000000000000,4.96528092226781,-3.290355038571430,-0.7205191485714280,0.0005118,0.0005118
mp-557954,GaN5O14,-122.02174746,0.0020198360000014400,82,283.44990026710500,Ga1N5O14,1.1668000000000000,2.130951289389540,-6.101087373,-0.882886137125,0.0007372,0.0007372
mp-626073,Al(HO)3,-324.80578546,0.07643795785714500,7,450.8637975320720,Al8H24O24,4.606,2.2983075083540400,-5.800103311785710,-1.9848694575000000,0.0003865,4.83125E-05
mp-626143,Mg(HO)2,-26.90831701,0.00937351999999958,5,42.594218505729000,Mg1H2O2,4.194100000000000,2.2735974596783700,-5.381663402,-2.0001325720000000,1E-07,1E-07
mp-626785,KHO,-26.85100599,0.0,36,86.07264743870170,K2H2O2,3.6839000000000000,2.1648133256954900,-4.475167665,-1.553805666,0.0,0.0
mp-648932,Nb2PS10,-298.02621475,0.0,18,1371.1476027656900,Nb8P4S40,1.3728000000000000,2.6034668734380800,-5.731273360576920,-0.9658571101602560,0.0001497,3.7425E-05
mp-753694,LiVF6,-41.36878545,0.04809919125000130,8,122.38598420707500,Li1V1F6,3.2309,2.331980239986400,-5.17109818125,-2.922385338541670,0.0,0.0
mp-754712,NClO3,-102.31075626,0.0,19,343.4438395274620,N4Cl4O12,2.9430000000000000,1.8848222815288700,-5.115537813,-0.5219548930000000,0.0008339,0.000208475
mp-7562,TaTl3S4,-40.96529573,0.0,217,241.05414693980400,Ta1Tl3S4,2.7258000000000000,6.353805344219700,-5.12066196625,-0.9357236490625,0.000908,0.000908
mp-1008556,AlGaN2,-27.14496592,0.015530882499999300,115,44.72710292290300,Al1Ga1N2,2.6691000000000000,4.630279982767960,-6.78624148,-1.105076054375,0.0,0.0
mp-17791,Cd4SiSe6,-72.52276731,0.01279517363636230,9,610.7924976721830,Cd8Si2Se12,1.3934,5.173558916428240,-3.2964894231818200,-0.8182765208238640,0.0031016,0.0015508
mp-28020,AlCuCl4,-44.48861566,0.0,112,311.2752383696850,Al2Cu2Cl8,2.5145,2.478892202166850,-3.7073846383333300,-1.5768964483333300,0.0011112,0.0005556
mp-28546,Eu4Cl6O,-169.01928679,0.0,186,561.2124075348010,Eu8Cl12O2,0.9888000000000000,4.950577692608290,-7.682694854090910,-2.8793898663636400,55.9994142,27.9997071
mp-29510,Hg2TeO3,-44.81041357,0.00843466911458357,28,269.9250857781910,Hg4Te2O6,2.2720000000000000,7.096507766975500,-3.7342011308333300,-0.9786103516666670,0.0,0.0
mp-30300,Cs3As5O9,-95.15960288,0.0,157,407.5279580593210,Cs3As5O9,3.1425,3.737765550433320,-5.597623698823530,-1.813479687870180,0.0017896,0.0017896
mp-37399,Li7NbO6,-82.77053082,0.045530037499999000,146,134.24335401371300,Li7Nb1O6,3.5111,2.9376579608399500,-5.912180772857140,-2.410071405952380,1.66E-05,1.66E-05
mp-555313,ScBiO3,-147.4514692,0.03373375387500040,9,282.41902134716800,Sc4Bi4O12,2.839,7.101137173256950,-7.37257346,-2.7714961740000000,5E-06,1.25E-06
mp-625998,LiHO,-29.77845716,0.01957527666666700,39,57.78146893036410,Li2H2O2,4.022,1.376467399890620,-4.963076193333330,-1.7755395544444400,8.63E-05,4.315E-05
mp-753256,Fe4O3F5,-70.72599795,0.08557055166665780,38,142.7930857345650,Fe4O3F5,1.6712,4.260514809782660,-5.893833162500000,-2.153307191458330,19.0061668,19.0061668
mp-770192,Li2CrO3,-74.94039076,0.05374398708333320,9,103.52841244013000,Li4Cr2O6,0.44880000000000000,3.6530270377557500,-6.245032563333330,-2.202569860277780,4.0000108,2.0000054
mp-867699,Li4TiS4,-43.96676673,0.009323041111110260,121,189.56989906262800,Li4Ti1S4,2.4743,1.785984866280310,-4.885196303333330,-1.54464264212963,0.0004038,0.0004038
mp-984350,Dy3Sb4Au3,-96.54398994,0.0,220,489.8890306209340,Dy6Sb8Au6,0.5673000000000000,10.612500494593800,-4.8271994970000000,-0.8881984870000000,3.93E-05,1.965E-05
mvc-1623,MgTa2O6,-160.62260051,0.06122476388888390,31,219.2815722937280,Mg2Ta4O12,3.0939000000000000,7.303005114456410,-8.923477806111110,-3.269966546111110,0.0003633,0.00018165
mp-1029584,KSi5N7,-797.91727339,0.0,33,1231.7076818096100,K8Si40N56,3.4175000000000000,2.993699358889860,-7.672281474903850,-1.20570966551923,6.82E-05,8.525E-06
mp-16238,Li2AgSb,-12.6120349,0.0,216,73.88228428198480,Li2Ag1Sb1,0.14780000000000000,5.473006203656000,-3.153008725,-0.5061579808333330,0.0003243,0.0003243
mp-16329,ErSbPt,-18.41705072,0.0,216,71.26954326522630,Er1Sb1Pt1,0.2870000000000000,11.279319424942700,-6.139016906666670,-1.2804743200000000,0.0,0.0
mp-22811,InCuSe2,-31.14633007,0.0,122,203.94595140885900,In2Cu2Se4,0.19860000000000000,5.476085360998820,-3.89329125875,-0.6686129199218750,0.0003161,0.00015805
mp-23352,Ge(Bi3O5)4,-192.5162761,0.0003902441414140870,197,546.086015549079,Ge1Bi12O20,2.4228000000000000,8.819518199972120,-5.833826548484850,-1.6967762553030300,0.0007247,0.0007247
mp-29187,Co(SiP)3,-167.39693881,0.004154635785714510,4,434.45928802423700,Co4Si12P12,1.3474000000000000,3.6097422134695200,-5.9784621003571400,-0.28743818964285700,0.0003501,8.7525E-05
mp-29796,Ho(AlCl4)3,-196.07646904,0.0,151,1614.2806440983700,Ho3Al9Cl36,4.3163,2.0716435623639500,-4.0849264383333300,-2.1703279208333300,0.0747984,0.0249328
mp-30847,TiSnPt,-20.45294599,0.0,216,60.50414509058560,Ti1Sn1Pt1,0.8310000000000000,9.925802909312870,-6.817648663333330,-0.8256581361111110,0.0004996,0.0004996
mp-35695,Li2HN,-17.17743807,0.08578581187499970,160,34.092725519761200,Li2H1N1,2.4721,1.4074556633984300,-4.2943595175,-0.4978428416666670,0.0,0.0
mp-505702,Pb2CO4,-182.94657623,0.0,19,474.13888268133000,Pb8C4O16,3.4175000000000000,6.870072634664850,-6.5338062939285700,-1.7201035996428600,0.0030238,0.00075595
mp-753318,DyBO3,-82.80132451,0.06000601850000110,40,120.53706474895900,Dy2B2O6,4.5198,6.097586218203750,-8.280132451,-3.466320125833330,0.0,0.0
mp-756202,Ba2SrI6,-60.83878171,0.0187649891666668,14,839.3251676073030,Ba4Sr2I12,3.5958000000000000,4.446308016950780,-3.379932317222220,-2.0024311168518500,0.0029336,0.0014668
mp-758397,Fe2OF3,-69.94698888,0.03395895777776840,38,145.07340581228700,Fe4O2F6,1.7041000000000000,4.227873572326320,-5.82891574,-2.322679938750000,6.9E-06,3.45E-06
mp-773864,TiSnO4,-45.37873597,0.06625076124999650,119,78.46714146278920,Ti1Sn1O4,2.2698,4.87947087058393,-7.563122661666670,-2.7383046797222200,3.5E-05,3.5E-05
mp-1245967,Zn3WN4,-104.18205677,0.0,31,201.86573624832100,Zn6W2N8,2.4933000000000000,7.174578559595140,-6.511378548125,-0.43146142312500000,0.0004131,0.00020655
mp-35539,Zn2GeSe4,-24.69233067,0.009914361428571270,121,179.11510177966400,Zn2Ge1Se4,1.3978000000000000,4.8143043642853200,-3.52747581,-0.7791670977678580,2.37E-05,2.37E-05
mp-4025,TmNiSb,-17.08645589,0.0,216,62.26951796706020,Tm1Ni1Sb1,0.3138000000000010,9.317107225688000,-5.695485296666670,-0.9644941822222220,0.0012083,0.0012083
mp-546633,KClO4,-26.28687303,0.0393533387499998,216,111.00586552125700,K1Cl1O4,5.232200000000000,2.0725558960701900,-4.381145505,-1.0473489005,0.0003501,0.0003501
mp-568269,TmNiBi,-16.10493064,0.0,216,66.36014626144930,Tm1Ni1Bi1,0.2127000000000000,10.925302282172000,-5.368310213333330,-0.6529747422222210,3.83E-05,3.83E-05
mp-580554,CsLi3Br4,-51.50822123,0.050124006875000400,26,492.14396941673700,Cs2Li6Br8,4.0021,3.1942155270940200,-3.219263826875,-1.8400260091163800,3.2E-06,1.6E-06
mp-626721,RbHO,-26.34140948,0.001196339999999910,4,103.43664422539500,Rb2H2O2,3.3498,3.290206765689470,-4.390234913333330,-1.5121612058333300,0.0003927,0.00019635
mp-643009,SrMgH4,-38.26054595,0.0,36,150.3120854415660,Sr2Mg2H8,2.8881,2.56201262128339,-3.1883788291666700,-0.49759921527777800,1.08E-05,5.4E-06
mp-766442,FePO4,-340.97095164,0.009450009166666720,29,787.6753653393750,Fe8P8O32,2.7283,2.54355001569039,-7.1035614925,-2.3250356630555600,40.0009517,5.0001189625
mp-18929,BaV2O6,-199.48761907,0.0,21,450.6200531818920,Ba3V6O18,2.878,3.7057160593095000,-7.388430335925930,-2.693702669259260,0.0045163,0.0015054333333333300
mp-19140,K3MnO4,-168.22143434,0.0,121,616.1366996691800,K12Mn4O16,1.9861,2.546642970024860,-5.256919823125,-1.77328780399138,2.3E-06,5.75E-07
mp-21272,ErNiSb,-17.18728284,0.0,216,62.81581062638490,Er1Ni1Sb1,0.33120000000000000,9.19179452407992,-5.729094280000000,-0.9674753700000000,5.91E-05,5.91E-05
mp-28582,CsB3H8,-101.86597175,0.005836444967943780,63,298.62356044781100,Cs2B6H16,6.0171,1.9284529869889300,-4.244415489583330,-0.35746665253592000,0.0003864,0.0001932
mp-29628,Na4SnS4,-68.99243293,0.0,114,440.50272673501200,Na8Sn2S8,2.0781,2.555284856173000,-3.832912940555560,-1.184749329856320,0.0006719,0.00033595
mp-29761,UCO5,-61.57867234,0.0004865714285884340,44,102.51007987154100,U1C1O5,2.2866,5.3461931255930500,-8.796953191428570,-2.8222395150000000,7.1E-06,7.1E-06
mp-675821,Y3TaO7,-203.9845504,0.11968760045453700,1,309.7378193913320,Y6Ta2O14,3.633,6.000812805505380,-9.272025018181820,-3.7189415631818200,0.0014762,0.0007381
mp-753845,LiCuO2,-80.73016925,0.03745871937499960,1,183.25964485190500,Li4Cu4O8,0.2533000000000000,3.714547734920700,-5.045635578125,-1.4131226914583300,9.06E-05,2.265E-05
mp-766460,FePO4,-340.93511873,0.01019652812500030,29,781.6162392020460,Fe8P8O32,2.7587,2.563267735984180,-7.102814973541670,-2.324289144097220,40.0010573,5.0001321625
mp-867203,Sr2CdAs2,-36.75285575,0.0,36,294.58077116372000,Sr4Cd2As4,1.0660000000000000,4.932271768052090,-3.675285575,-0.9512628796666670,0.0023145,0.00115725
mp-961706,TiSiPt,-22.2326993,0.06032826083333380,216,51.3322716260144,Ti1Si1Pt1,0.9701000000000000,8.767714392293600,-7.410899766666670,-0.9233285177777770,0.0,0.0
mp-1029265,Mg2ZnN2,-27.36244986,1.9536754065000000,215,412.59596740013200,Mg4Zn2N4,0.11530000000000000,1.1432508679573800,-2.736244986,1.3460137260000000,7.9995886,3.9997943
mp-17066,Y2TeO6,-274.74472952,0.0,19,490.75690319312300,Y8Te4O24,3.0878000000000000,5.432863622398210,-7.631798042222220,-3.004908132592590,1.7E-06,4.25E-07
mp-27931,Rb2SnO2,-90.85334099,0.0,19,514.5730087331430,Rb8Sn4O8,2.2261,4.151815837119450,-4.5426670495,-1.6441546475000000,0.001914,0.0004785
mp-28189,FeSeCl7,-59.34963733,0.0,1,562.9564664159570,Fe2Se2Cl14,1.3313000000000000,2.2593100799389800,-3.2972020738888900,-1.0074602352604200,10.0006673,5.00033365
mp-4342,KNbO3,-38.26552385,0.002134466000002890,99,68.4707479204699,K1Nb1O3,1.5577000000000000,4.365394324123520,-7.653104770000000,-2.8541873696000000,0.0001493,0.0001493
mp-4979,AlCuS2,-38.70696449,0.0,122,149.48508022312100,Al2Cu2S4,1.6756000000000000,3.435993537364090,-4.83837056125,-1.0604500028125,7.66E-05,3.83E-05
mp-755380,Ce2Dy2O7,-93.52529465,0.09094265999999960,115,160.87337455893200,Ce2Dy2O7,1.9072,7.403243605829140,-8.502299513636360,-3.8744377840909100,0.0079,0.0079
mp-10246,Na2PtS2,-42.57879501,0.0,36,206.86975610763800,Na4Pt2S4,1.3934000000000000,4.899563891679600,-4.257879501,-1.0613078948706900,0.0033964,0.0016982
mp-14780,Na6MnSe4,-83.64305387,0.0,186,559.1635058229730,Na12Mn2Se8,1.1333000000000000,3.02145572839611,-3.8019569940909100,-1.14806490651058,9.9988646,4.9994323
mp-16376,HoSbPt,-18.43237831,0.0,216,71.75442882843070,Ho1Sb1Pt1,0.3260000000000010,11.149208386251800,-6.144126103333330,-1.2806868300000000,5.8E-06,5.8E-06
mp-18481,K6MnSe4,-82.58490135,0.0,186,742.2103885221560,K12Mn2Se8,1.2325,2.7087655247928300,-3.753859152272730,-1.2156723445732800,9.9992005,4.99960025
mp-20337,ZrPbO3,-39.25952211,0.03254247581249810,38,76.35838009464850,Zr1Pb1O3,3.2477000000000000,7.533522789829770,-7.851904422,-2.8432582790000000,1.2E-06,1.2E-06