material_id,pretty_formula,final_energy,e_above_hull,spacegroup.number,volume,full_formula,band_gap,density,final_energy_per_atom,formation_energy_per_atom,magnetism.total_magnetization,total_magnetization
mp-761033,Hf3N2O3,-166.99921319,0.0,8,224.84467858843800,Hf6N4O6,3.1674000000000000,9.031915646673340,-10.437450824375,-3.1117708975000000,0.0008764,0.0004382
mp-762268,Li3V2O6,-72.62496797,0.08165162409088730,1,107.03095812955100,Li3V2O6,1.2497000000000000,3.393073233256530,-6.602269815454550,-2.4149655636363600,1.0000047,1.0000047
mp-764354,LiMnF5,-139.61801987,0.09250423648809930,76,344.22746331884700,Li4Mn4F20,1.652,3.026958078219430,-4.9863578525,-2.6077388530377700,11.998839,2.99970975
mp-1180553,Li4CO4,-51.92154101,0.18447558444444500,23,71.36732761954670,Li4C1O4,6.1222,2.4145216575790500,-5.769060112222220,-2.001691647037040,0.0,0.0
mp-1245535,CdGeN2,-88.25429413,0.0028724435416664900,33,217.19084028975200,Cd4Ge4N8,0.9591000000000000,6.515960975696520,-5.515893383125,-0.14166651687500000,0.0001957,4.8925E-05
mp-19154,Ba(FeO2)2,-184.05818492,0.0,36,461.3138260815560,Ba4Fe8O16,1.7453,4.5068926386288900,-6.573506604285710,-2.089102068571430,39.9999721,9.999993025
mp-34380,HoTaO4,-54.42131961,0.25077338500000000,123,67.8138274036397,Ho1Ta1O4,1.5892,10.036519164488200,-9.070219935000000,-3.4895481816666700,0.0011927,0.0011927
mp-4236,BaZnO2,-63.48698398,0.0,152,210.8839611366440,Ba3Zn3O6,2.2892,5.545034865472370,-5.290581998333330,-2.365422885833330,0.0003249,0.00010830000000000000
mp-4840,GaCuSe2,-32.06115142,0.0,122,180.76173278024300,Ga2Cu2Se4,0.45810000000000000,5.3499233806530100,-4.0076439275,-0.7138625155468750,5.5E-06,2.75E-06
mp-675020,Li4MoO5,-58.93733404,0.026628544000001100,79,93.07747542539270,Li4Mo1O5,2.8527000000000000,3.6341066069912600,-5.893733404000000,-2.235319451833330,0.0038648,0.0038648
mp-675926,LiBH4,-47.77145081,0.04312549166666720,2,84.20231377463470,Li2B2H8,5.6481000000000000,0.8591874231450200,-3.9809542341666700,-0.4070844312500000,0.000163,8.15E-05
mp-676464,Cd3AsI3,-15.09472903,0.0,6,276.0571668115460,Cd3As1I3,0.842,4.769259644547410,-2.1563898614285700,-0.6045576428571430,0.000778,0.000778
mp-753679,NbVO4,-205.7757383,0.0068680415922841600,35,281.55158935766900,Nb4V4O16,0.6855000000000000,4.903336403017590,-8.573989095833330,-2.8191465741666700,0.0004576,0.0001144
mvc-11129,Ca5(CrN3)2,-90.13738218,0.10602737423077600,6,214.65561333267600,Ca5Cr2N6,0.7929000000000000,3.004769172017490,-6.9336447830769200,-0.9961783300000000,0.0001694,0.0001694
mp-17912,Rb3SbSe3,-96.9198947,0.0,198,1122.2520134502200,Rb12Sb4Se12,2.343,3.640193400819580,-3.4614248107142900,-1.1553765406473200,0.0,0.0
mp-18762,Na4CoO3,-70.72082047,0.0,9,241.75906681877300,Na8Co2O6,1.1625,2.732186248694870,-4.420051279375,-1.4771385314008600,5.9987549,2.99937745
mp-22958,KBrO3,-20.77437234,0.0,160,92.15893490429730,K1Br1O3,4.0763,3.0090501228091200,-4.154874468,-1.0488314971000000,3.4E-06,3.4E-06
mp-30161,Si2CN4,-116.10929918,0.0,41,189.05303898049200,Si4C2N8,4.478,2.181959811553930,-8.293521370000000,-0.8678944499999990,2.01E-05,1.005E-05
mp-5238,GaCuS2,-35.41840432,0.0,122,153.2742792826680,Ga2Cu2S4,0.7026000000000000,4.277152732237180,-4.42730054,-0.8287499334375000,7E-07,3.5E-07
mp-540574,Cs2Hg3I8,-24.21321463,0.0,8,665.7731361735830,Cs2Hg3I8,1.9987,4.696030007239930,-1.8625549715384600,-0.9500975285278520,0.0021199,0.0021199
mp-550506,KClO3,-21.45112903,0.061993357875000000,160,89.1498594092199,K1Cl1O3,5.3356,2.28265342975124,-4.2902258060000000,-1.1418620816,0.0,0.0
mp-567771,Ba(Si3N4)2,-117.99175801,0.0,44,183.47619983640500,Ba1Si6N8,3.2736,3.7821180572785500,-7.866117200666670,-1.3144629106666700,0.0002643,0.0002643
mp-632480,Ag3SI,-14.57623251,0.061793342000000100,1,123.3438233881280,Ag3S1I1,0.17380000000000000,6.49674279385352,-2.915246502,-0.2600204036250000,9.51E-05,9.51E-05
mp-755493,CrSbO4,-41.14006684,0.06755165291666640,119,76.19151992225910,Cr1Sb1O4,1.6142000000000000,5.181669921817080,-6.856677806666670,-2.052195685000000,3.0000937,3.0000937
mp-755582,Li2MnF4,-76.20184894,0.08251495142857120,5,159.42899063902300,Li4Mn2F8,3.6791,3.0166249587392800,-5.44298921,-2.998735367799670,10.0,5.0
mp-756044,Na3AsO4,-84.18592697,0.0,31,245.28368956156100,Na6As2O8,3.2297000000000000,2.81475698104958,-5.261620435625,-2.0528031474569000,0.0004885,0.00024425
mp-775296,TiMnO4,-96.07374024,0.053143174166665500,119,136.50619190300900,Ti2Mn2O8,0.2933000000000000,4.0581647553616300,-8.00614502,-2.6005864652107300,9E-07,4.5E-07
mp-28000,P(WO4)2,-329.97513463,0.0018821131818160800,19,642.7766105899950,P4W8O32,1.1592000000000000,5.442146844656520,-7.499434877954550,-2.3593218337121200,4.0008677,1.000216925
mp-29289,BaPt2S3,-129.30683215,0.0029171895833277600,92,589.7308836219490,Ba4Pt8S12,1.1963000000000000,7.024638791762320,-5.387784672916670,-1.2275953644791700,7.2E-06,1.8E-06
mp-4586,LiAlTe2,-29.59561814,0.0,122,245.83092629923000,Li2Al2Te4,2.6599,3.9059306134288400,-3.6994522675,-0.925177128333333,0.0031594,0.0015797
mp-755685,SmYO3,-172.9239555,0.06382654999999990,33,300.61674476601400,Sm4Y4O12,4.2072,6.347127174516110,-8.646197775000000,-3.8526097223333300,1.09E-05,2.725E-06
mp-761931,Na8SnO6,-131.04665335,0.004780681666663790,185,469.36376822415800,Na16Sn2O12,1.078,2.820548538401060,-4.368221778333330,-1.6911857628275900,0.0027042,0.0013521
mp-14983,Si4P4Ru,-55.85412643,0.0,1,153.12812071673000,Si4P4Ru1,1.4917000000000000,3.657796673934660,-6.206014047777780,-0.358363407592593,0.0008185,0.0008185
mp-20435,V(PO3)3,-192.83353764,0.0035711379487040100,9,339.6500295301080,V2P6O18,2.2645,2.814652692500260,-7.4166745246153800,-2.6495620142307700,4.0000667,2.00003335
mp-23329,Bi2WO6,-118.94963217,1.37544444429594E-05,41,261.0624321539500,Bi4W2O12,1.9543,8.876953314223230,-6.608312898333330,-1.9565394405555600,0.0056569,0.00282845
mp-25296,MnBO3,-113.91847562,0.22327976513542900,174,187.8965140668550,Mn3B3O9,0.5891,3.015730413818370,-7.594565041333330,-2.2033070257528700,12.0005701,4.000190033333330
mp-510519,Rb2V3O8,-180.15341596,0.0,100,475.48172500087900,Rb4V6O16,2.0930000000000000,3.155357124155360,-6.928977536923080,-2.4520179680769200,2.002383,1.0011915
mp-626701,Mn(HO)2,-61.16878066,0.0040582475000015000,5,94.65321528391740,Mn2H4O4,1.7329,3.1210661888233600,-6.116878066,-1.556600187586210,5E-07,2.5E-07
mp-760375,Li3VS4,-40.23005571,0.0,215,211.22125698019600,Li3V1S4,1.8951,1.5725145341705500,-5.02875696375,-1.3606976965625000,0.0,0.0
mp-771568,SrCa2I6,-116.09626423,0.08995188472222540,19,1578.5466992139700,Sr4Ca8I24,3.7062,3.909868701821000,-3.224896228611110,-1.8281441282407400,6.21E-05,1.5525E-05
mp-867689,LiCuS,-24.26708823,0.07840022534722200,31,96.92843705410580,Li2Cu2S2,0.7925999999999990,3.5137593782288200,-4.044514705,-0.8306549038194450,3.98E-05,1.99E-05
mp-989625,SrWN3,-85.72162037,0.0,1,147.72274258349000,Sr2W2N6,1.0807000000000000,7.047607478008620,-8.572162037,-0.8573410973333320,0.0003911,0.00019555
mp-14367,AsPO5,-183.3652172,0.0,19,329.71073327852400,As4P4O20,2.0202,3.7448769254689700,-6.548757757142860,-2.0662969090476200,0.0018218,0.00045545
mp-14485,LaTa7O19,-523.33694504,0.0,188,694.352295782005,La2Ta14O38,3.1240000000000000,8.176656400948520,-9.691424908148150,-3.4359171448148200,0.0253686,0.0126843
mp-19056,HoMnO3,-241.29595778,0.0,185,383.9337569773490,Ho6Mn6O18,1.5430000000000000,6.95124439153743,-8.043198592666670,-3.071337157252880,23.9999991,3.99999985
mp-20032,VPbO3,-68.9050382,0.022054172312498300,99,145.62135938137600,V2Pb2O6,1.5,6.9819006476356300,-6.890503820000000,-2.1146165890000000,1.2E-06,6E-07
mp-20459,TiPbO3,-38.04397103,0.0,99,68.98476581295090,Ti1Pb1O3,1.9569,7.29511216565533,-7.608794206000000,-2.7305897856666700,0.0002097,0.0002097
mp-23485,Ag2HgI4,-14.16213568,0.0,82,281.16235698463600,Ag2Hg1I4,1.456,5.4567958127675300,-2.02316224,-0.5161846926190480,0.0007444,0.0007444
mp-28408,KTcCl3,-90.96377253,0.05048302549999930,9,549.3437181871280,K4Tc4Cl12,1.7152000000000000,2.9436605485037800,-4.5481886265,-1.5132628591,0.0017182,0.00042955
mp-29541,GaTeI7,-39.20351278,0.0,7,940.2077836404790,Ga2Te2I14,1.8822,3.8348360707812200,-2.177972932222220,-0.6016967925000000,0.0043983,0.00219915
mp-30530,TlClO4,-25.46262994,0.0,216,117.98432248338300,Tl1Cl1O4,4.646100000000000,4.276229672620260,-4.243771656666670,-0.7012676855555560,0.0001737,0.0001737
mp-34292,Tl9SbTe6,-48.83373739,0.0,79,541.5836043885730,Tl9Sb1Te6,0.6309999999999990,8.360618743519270,-3.052108586875,-0.4445713906250010,0.0041578,0.0041578
mp-34982,Ag3AuS2,-20.18798593,0.0415626183333333,1,132.7084973055560,Ag3Au1S2,0.4102000000000000,7.316179092704850,-3.3646643216666700,-0.19158944104166700,8.02E-05,8.02E-05
mp-37183,Sr(GdS2)2,-121.81667837,0.02352329250000020,122,315.83095555769600,Sr2Gd4S8,1.3382000000000000,5.577139888571940,-8.701191312142860,-2.3618288263095200,28.0009002,14.0004501
mp-625939,Co(HO)2,-26.93914298,0.050439980000003700,5,42.722163312710700,Co1H2O2,2.4450000000000000,3.612728514359500,-5.387828596,-1.2322902170000000,3.0000028,3.0000028
mp-776356,Li2SbS2,-161.68875491,0.06852176025000030,19,832.2842401437610,Li16Sb8S16,1.5415000000000000,3.1886146046020600,-4.04221887275,-1.037869531333330,6.1E-06,7.625E-07
mp-8976,Cu2WS4,-40.91406047,0.0027346052380954300,111,169.62375551661600,Cu2W1S4,1.6202,4.2994890162465800,-5.844865781428570,-0.7462458846428570,4E-07,4E-07
mvc-5693,MoWO6,-58.0009027,0.020839853906251100,8,116.79835259020600,Mo1W1O6,1.4339,5.34246741215281,-7.2501128375,-2.0339208962500000,0.0010011,0.0010011
mp-1008523,BC2N,-32.05855521,0.9931632362500020,115,24.250340802166000,B1C2N1,1.6460000000000000,3.344251290701050,-8.0146388025,0.2624732214583340,0.0001645,0.0001645
mp-1009087,BeSiAs2,-38.65259517,0.0,122,155.05146526752700,Be2Si2As4,1.0226000000000000,4.004123884544470,-4.83157439625,-0.21083347249999900,0.0001779,8.895E-05
mp-1119092,Cs3W2N5,-299.6322819,0.025016435422223500,80,969.3089602552150,Cs12W8N20,1.9073000000000000,5.73160677889433,-7.490807047500000,-0.6428135793793120,0.0056399,0.001409975
mp-20187,LiInSe2,-30.26860156,0.0,122,217.894253492558,Li2In2Se4,1.9459000000000000,4.262782502646250,-3.783575195,-1.1064678070052100,9.7E-06,4.85E-06
mp-23492,Si(Bi3O5)4,-196.49376846,0.006619569949497080,197,537.8158133513420,Si1Bi12O20,0.12200000000000000,8.817574618142640,-5.95435662,-1.7929946248484900,1.11E-05,1.11E-05
mp-27457,Ba(PO3)2,-260.5346176,0.0011850358333331800,19,531.8292120878920,Ba4P8O24,5.2784,3.6877169842415500,-7.237072711111110,-2.980256947407410,0.0035556,0.0008889
mp-27704,K3V5O14,-152.82728964,0.0,157,355.681006810767,K3V5O14,2.3228,2.7824688457029,-6.946694983636360,-2.4055958354090900,6.4E-06,6.4E-06
mp-28261,Na4SnO3,-70.67831866,0.0,9,276.941782309308,Na8Sn2O6,2.0228000000000000,3.101930776404710,-4.41739491625,-1.657075410775860,0.0012738,0.0006369
mp-4906,Te2SO7,-113.34396208,0.0,31,307.9408063861340,Te4S2O14,3.2922,4.305945444142490,-5.667198104,-1.6925202278125000,0.0026414,0.0013207
mp-545541,Na4CO4,-45.79304956,0.28459562324074100,8,138.47632289702400,Na4C1O4,1.5692,2.0141810945507800,-5.088116617777780,-1.5813692962452100,0.0003047,0.0003047
mp-625136,CsHO,-26.0543018,0.0,36,123.32082021448800,Cs2H2O2,3.4373,4.03721037696732,-4.342383633333330,-1.4926871593103500,9E-07,4.5E-07
mp-626037,Si2H2O5,-124.14178773,0.035328468611111500,5,242.78047702402000,Si4H4O10,5.424900000000000,1.8902650981418400,-6.896765985,-2.570000967777780,0.0006494,0.0003247
mp-675293,Yb(YS2)2,-91.54825662,0.015635543571435500,122,291.0854031757520,Yb2Y4S8,2.3157000000000000,5.466324909702060,-6.539161187142860,-2.3953969051190500,0.0007489,0.00037445
mp-675420,Pr4Ag2Se7,-134.80331496,0.08775036717146720,7,699.0187205621430,Pr8Ag4Se14,1.5049000000000000,6.328821928634880,-5.184742883076920,-1.6496591192107400,0.0026221,0.00131105
mp-754243,Cr4OF11,-96.93772089,0.03582050047916670,5,199.0138280091330,Cr4O1F11,0.9706000000000000,3.612599964839280,-6.058607555625,-2.8822688351562500,11.0025337,11.0025337
mp-768176,TmTaO4,-110.74534192,0.08539365166666710,36,160.19084813644700,Tm2Ta2O8,3.5639000000000000,8.580557530126840,-9.228778493333330,-3.6658689811111100,0.0003464,0.0001732
mp-7909,Al2CdTe4,-24.23839571,0.0,82,236.55605640055400,Al2Cd1Te4,1.8805,4.750712416975050,-3.4626279585714300,-0.7055929385714290,2.8E-06,2.8E-06
mp-924128,HfNiSn,-21.63908276,0.0,216,57.15171262001420,Hf1Ni1Sn1,0.4347000000000000,10.340458179693200,-7.213027586666670,-0.6307284583333340,0.000865,0.000865
mvc-6654,Mg(SbO2)2,-80.3049461,0.27760829964285700,1,233.40453074007000,Mg2Sb4O8,1.6484,4.721454110026760,-5.736067578571430,-1.8929066428571400,0.0001471,7.355E-05
mp-1193319,Rb3SbS3,-104.96360087,0.0,198,1004.3322410904400,Rb12Sb4S12,2.7608,3.137171635213630,-3.7487000310714300,-1.1814210227678600,4.5E-06,1.125E-06
mp-1246430,Zn3MoN4,-98.86150216,0.0,31,200.62208859172800,Zn6Mo2N8,2.1347,5.7639655902949,-6.178843885,-0.3629871900000000,0.0005832,0.0002916
mp-1541585,Mn2As2O7,-75.05377601,0.00154998045454402,5,146.02445529969400,Mn2As2O7,1.2413000000000000,4.227014080093120,-6.823070546363640,-1.9018892346238200,10.0000155,10.0000155
mp-23828,Sr7(H6Br)2,-72.24955173,0.0,174,353.8461422918990,Sr7H12Br2,3.7421000000000000,3.685011612051070,-3.440454844285710,-0.9358342491269840,0.0026651,0.0026651
mp-558645,PBr3O,-77.04069816,0.0,62,719.6814944082700,P4Br12O4,3.3311,2.6459033059171000,-3.8520349080000000,-1.2554224701666700,0.0,0.0
mp-5621,NbCu3S4,-43.71850083,0.0,215,169.1862406247560,Nb1Cu3S4,1.7916000000000000,4.04180185257294,-5.46481260375,-0.8482220390625010,0.0002335,0.0002335
mp-570370,SnPSe3,-84.48965883,0.0,7,546.3126428334690,Sn4P4Se12,1.4330000000000000,4.699903888027240,-4.2244829415,-0.5255611825729170,0.0031246,0.00078115
mp-756500,Sr2CaI6,-58.31979136,0.0623250658333272,15,835.7927823018880,Sr4Ca2I12,3.7064000000000000,3.881160416921020,-3.2399884088888900,-1.8783592448148200,0.0005235,0.00026175
mp-757163,LiVF6,-41.55002045,0.025444816250001200,149,98.74511193135620,Li1V1F6,3.1595000000000000,2.8902868328367000,-5.19375255625,-2.945039713541670,0.0001816,0.0001816
mp-763985,Cr4OF11,-96.91076698,0.03750511985416610,1,200.21088189413400,Cr4O1F11,0.8557000000000000,3.591000355557540,-6.05692293625,-2.8805842157812500,11.0021592,11.0021592
mp-774192,Li2VO3,-155.39388621,0.022451055833332000,2,216.53973067450400,Li8V4O12,1.6100000000000000,3.4607014579109500,-6.4747452587500000,-2.477306122361110,1.3E-06,3.25E-07
mp-850275,Li3SbS4,-32.62029625,0.07122628374999970,215,233.98004780368400,Li3Sb1S4,2.5976,1.922152707621010,-4.07753703125,-1.0288408678125000,0.0001701,0.0001701
mp-961665,MgScGa,-11.82923367,0.13819753844817200,216,67.96179657211590,Mg1Sc1Ga1,0.0777000000000001,3.395852186750270,-3.94307789,-0.28946283083333300,0.0031529,0.0031529
mp-1029857,Rb3W2N5,-300.73762501,0.0,80,884.736695349838,Rb12W8N20,2.046,5.211079116737790,-7.518440625250000,-0.6449076470000010,0.0056303,0.001407575
mp-12022,HgB4O7,-171.60061903,0.07199320427083310,31,204.3789800622280,Hg2B8O14,2.0533000000000000,5.782094457860210,-7.150025792916670,-2.4126945859722200,0.000665,0.0003325
mp-14175,K3NbO8,-69.58889988,0.0,121,192.96115530326500,K3Nb1O8,2.6518,2.910370568335340,-5.79907499,-1.69105916325,0.0,0.0
mp-14568,BaMgF4,-66.5496178,0.0037544700000014000,36,183.73963547166100,Ba2Mg2F8,6.9487000000000000,4.295062546154060,-5.5458014833333300,-3.992940358333330,0.0004896,0.0002448
mp-1540546,RbPbF3,-45.88731515,0.0,161,218.83815862701900,Rb2Pb2F6,3.8195000000000000,5.306470235616780,-4.588731515,-2.7804079060000000,0.0006365,0.00031825
mp-20832,Zn(InTe2)2,-21.96484035,0.0,82,245.8968106096720,Zn1In2Te4,1.2763000000000000,5.439163221277790,-3.1378343357142900,-0.6166465085714280,0.0018692,0.0018692
mp-3288,CsNO2,-68.51783919,0.0,152,258.8809357737080,Cs3N3O6,2.3904,3.442763649451200,-5.7098199325,-1.2713651057327600,3.48E-05,1.16E-05
mp-36262,BrO2F,-28.33437506,0.0,9,148.30086339428700,Br2O4F2,2.8995000000000000,2.931426787457510,-3.5417968825,-0.6397134150000000,0.0018273,0.00091365
mp-541937,Zn(InS2)2,-27.21880343,0.062298055714285800,160,168.59418518077800,Zn1In2S4,0.13580000000000000,4.169268879786110,-3.88840049,-0.8459846989285720,0.0001389,0.0001389
mp-675800,Li5TiP3,-80.98759268,0.02807484458333410,15,300.28466375980600,Li10Ti2P6,0.6735000000000000,1.9409146886176300,-4.4993107044444400,-0.7570869411111120,0.0003622,0.0001811
mp-760457,YBO3,-86.31473593,0.08505931666667090,40,121.2254944061880,Y2B2O6,4.599,4.0467826087455600,-8.631473593000000,-3.4457244131666700,1.3E-06,6.5E-07
mp-771260,Y2Hf2O7,-423.23855109,0.07617056193181780,92,669.9765701971440,Y8Hf8O28,4.1331,6.412259528553440,-9.619057979318180,-3.9214173464393900,0.0008136,0.0002034
mvc-7568,Mg2Ti3O8,-209.30575037,0.04440502923067410,186,292.01654867497400,Mg4Ti6O16,2.6528,3.641676520595780,-8.050221168076920,-3.3598577688461500,0.0006399,0.00031995
mp-1539137,RbCr5S8,-93.06630655,0.03691050785714370,8,260.1417495032230,Rb1Cr5S8,0.3523000000000000,3.842489261772280,-6.647593325,-1.053781156607140,11.0,11.0
mp-25886,CuPO4,-74.72972683,0.07805505208333410,43,141.81885281396000,Cu2P2O8,0.0015999999999998200,3.7121196105101100,-6.227477235833330,-1.801418369722220,9.9E-06,4.95E-06
mp-28377,CsGeI3,-14.31408463,0.0,160,226.6438871133130,Cs1Ge1I3,2.1992,4.295309949562820,-2.862816926,-1.072123311586210,0.0025577,0.0025577
mp-28508,Cd(HO)2,-45.00918472,0.06616328200000070,8,106.04763909663700,Cd2H4O4,0.9869,4.5855912317275,-4.500918472,-1.2548657000000000,0.0004264,0.0002132
mp-34185,Ca(PrS2)2,-85.19147774,0.01198756785714570,122,321.40394868134800,Ca2Pr4S8,2.2359000000000000,4.65144963946916,-6.085105552857140,-2.3563630332142900,0.0001848,9.24E-05
mp-35152,Sr2H5Rh,-32.13711305,0.0,107,112.36125907980200,Sr2H5Rh1,0.7778,4.185073142950080,-4.01713913125,-0.6656485060416680,2.96E-05,2.96E-05
mp-3731,LiNbO3,-78.58139836,0.0,161,111.26706337251300,Li2Nb2O6,3.3768000000000000,4.412866736532980,-7.858139836000000,-2.899517651666670,2.38E-05,1.19E-05
mp-504498,K2CdPb,-15.1328584,0.0,40,324.39034920850300,K4Cd2Pb2,0.02949999999999990,4.072717097793800,-1.8916073,-0.17752361900000000,0.0013019,0.00065095
mp-5073,RbNO3,-262.0975622,0.017042036888889300,144,752.9788684991610,Rb9N9O27,3.2427,2.9269846853149700,-5.8243902711111100,-1.4044078686111100,0.0019677,0.00021863333333333300
mp-510293,Pb3SeO5,-98.4893592,0.0,36,353.17248332405700,Pb6Se2O10,2.4633000000000000,7.340013468822860,-5.471631066666670,-1.4784468763715300,0.0004547,0.00022735
mp-626843,Ni(HO)2,-24.68264471,0.028985287500003800,5,65.81308652130340,Ni1H2O2,1.8700000000000000,2.3391303579060500,-4.936528942000000,-1.2272267860000000,1.9995399,1.9995399
mp-675475,Li2MnBr4,-27.8693047,0.05328853714285660,44,167.79928866482100,Li2Mn1Br4,1.5098,3.8439568649573400,-3.981329242857140,-1.4968160149425300,5.0010905,5.0010905
mp-756018,BaMgO2,-70.93311355,0.03770611416666640,152,211.46183443570100,Ba3Mg3O6,3.1605,4.561553749238540,-5.9110927958333300,-2.900799573333330,0.0,0.0
mp-756952,Li4MnF8,-64.61940432,0.04470437410256260,3,150.16185745479000,Li4Mn1F8,2.2418,2.5952709226475200,-4.97072340923077,-2.9149127554818700,2.9995474,2.9995474
mp-1212662,GaClO,-57.84974387,0.0,29,248.42846675215900,Ga4Cl4O4,2.6767000000000000,3.239829770581360,-4.820811989166670,-1.979614093333330,0.0001231,3.0775E-05
mp-34337,H4NCl,-27.35727497,0.0,215,58.28087302632650,H4N1Cl1,4.9364,1.5240790751255100,-4.559545828333330,-0.7627232008333330,0.0,0.0
mp-558387,TeOF2,-75.1002051,0.0,4,258.3858904783010,Te4O4F8,4.2002,4.668174326629970,-4.69376281875,-2.11795785125,0.0017469,0.000436725
mp-625113,H8PtO6,-151.35466011,0.08404967866667330,1,225.98576001351800,H16Pt2O12,1.5241000000000000,4.3962076695996300,-5.045155337,-1.1265898636666700,0.0011821,0.00059105
mp-626566,Ti3H2O7,-189.57288312,0.07264728583333910,1,288.3952110181490,Ti6H4O14,2.7061,2.966595164193650,-7.89887013,-2.8739821987500000,6.81E-05,3.405E-05