material_id,pretty_formula,final_energy,e_above_hull,spacegroup.number,volume,full_formula,band_gap,density,final_energy_per_atom,formation_energy_per_atom,magnetism.total_magnetization,total_magnetization
mp-1029294,LiSn2N3,-70.08167881,0.07039197250000220,36,174.33071378390900,Li2Sn4N6,0.8466000000000000,5.455688147704660,-5.840139900833330,-0.1977146755555550,0.0001733,8.665E-05
mp-1218926,SnPtSe,-61.02639336,0.0,198,259.6420552501730,Sn4Pt4Se4,0.5962000000000000,10.047422555410200,-5.08553278,-0.7174024324479160,4.5E-05,1.125E-05
mp-1222182,Mg(InTe2)2,-23.06562047,0.0,82,258.6270978720770,Mg1In2Te4,1.4769,4.907521683330710,-3.2950886385714300,-0.7252527485714280,0.0004017,0.0004017
mp-29403,GaCuI4,-15.71305907,0.0,82,242.60697984751400,Ga1Cu1I4,1.8391,4.386591441764290,-2.6188431783333300,-0.6676176529166660,0.0004964,0.0004964
mp-555321,BaNiF4,-62.53350267,0.0,36,183.49749897565500,Ba2Ni2F8,4.1829,4.9231177257294400,-5.2111252225,-3.385121325833330,5.1168245,2.55841225
mp-556850,BaMnF4,-73.14254992,0.0060881733333335600,36,201.69229465707200,Ba2Mn2F8,2.3195,4.417164096307840,-6.0952124933333300,-3.5600621613218400,9.9991632,4.9995816
mp-567583,CsSbCl6,-49.50528046,0.0,15,546.907722070473,Cs2Sb2Cl12,2.1552000000000000,2.838169766644120,-3.09408002875,-1.5401270822413800,0.0034029,0.00170145
mp-625604,H9BrO4,-259.93702561,0.02799570125000010,4,563.3053272202040,H36Br4O16,3.7298,1.8037659506674400,-4.641732600178570,-1.1644960775000000,0.0014287,0.000357175
mp-675022,CsPbCl3,-17.69945962,0.011752994999993500,155,188.3350549024290,Cs1Pb1Cl3,2.8506,3.936450729324880,-3.539891924,-1.8775600395862100,0.0004497,0.0004497
mp-676400,TlNO2,-22.26289153,0.11187468666666700,1,75.3918585713087,Tl1N1O2,1.6843,5.514924185690850,-5.5657228825,-0.7604578620833330,0.0005187,0.0005187
mp-756006,LiSbS,-24.68119723,0.0,1,144.37090125257400,Li2Sb2S2,0.37040000000000000,3.698227568919560,-4.113532871666670,-0.9537415471527780,0.0,0.0
mp-849770,CoPO4,-80.99518672,0.0,9,194.20222629875300,Co2P2O8,1.0727,2.631942324215330,-6.749598893333330,-2.0950215063888900,8.0018385,4.00091925
mp-9747,B4PbO7,-184.05003617,0.0,31,212.07900727071100,B8Pb2O14,4.5596000000000000,5.675672051995760,-7.668751507083330,-2.647339741388890,9.3E-06,4.65E-06
mp-998561,CsSrCl3,-39.19134933,0.0035638229999994700,161,368.93993832827500,Cs2Sr2Cl6,5.3197,2.9425082310340900,-3.919134933,-2.66143377191954,0.0001544,7.72E-05
mp-1018118,TmSbPd,-15.89965223,0.2715184999999990,216,74.94356523879620,Tm1Sb1Pd1,0.3247,8.798936339709010,-5.299884076666670,-0.704977918888888,0.0012206,0.0012206
mp-10519,Cu2SnS3,-53.15814858,0.0,9,245.63076149803500,Cu4Sn2S6,0.04070000000000020,4.624008619250600,-4.429845715,-0.5784565823958340,0.0067697,0.00338485
mp-10644,TaTl3Se4,-37.72630965,0.0,217,262.11915802899000,Ta1Tl3Se4,2.4690000000000000,7.031515967945510,-4.71578870625,-0.8356195836718750,0.0031333,0.0031333
mp-1228724,AsRhSe,-68.87881385,0.0,198,217.39554673794300,As4Rh4Se4,0.9560999999999990,7.845699100045060,-5.739901154166670,-0.7241219032812500,2.82E-05,7.05E-06
mp-16314,TmSbPt,-18.3161558,0.0,216,70.66945414801040,Tm1Sb1Pt1,0.24430000000000000,11.41446053507870,-6.105385266666670,-1.2774704755555600,6.7E-06,6.7E-06
mp-17650,KGaS2,-132.79309757,0.0,15,826.8854624801140,K8Ga8S16,2.5331,2.7785457918959400,-4.1497842990625,-1.2984356232500000,0.0055992,0.0006999
mp-25316,LiNiO2,-18.56595487,0.2738841550000010,44,45.00581683156820,Li1Ni1O2,0.5773000000000000,3.6022841981495500,-4.6414887175,-1.223993328333330,0.9999559,0.9999559
mp-30253,Na10SrSn12,-69.1284745,0.0,217,732.2663913101640,Na10Sr1Sn12,0.7737000000000000,3.950367897137130,-3.0055858478260900,-0.265168080529735,0.0021411,0.0021411
mp-697853,Ba3WO6,-134.91537463,0.1036873474999990,1,367.4141292377500,Ba6W2O12,2.5932000000000000,6.253378562424680,-6.7457687315,-2.7614882325000000,0.0014231,0.00071155
mp-753212,LiVF6,-41.29513102,0.057305995000001,156,136.51118461974500,Li1V1F6,3.2532,2.090683614072930,-5.1618913775,-2.913178534791670,0.0006909,0.0006909
mp-998193,RbSnF3,-23.05749885,0.042196891625001100,1,112.25028907002000,Rb1Sn1F3,3.4835000000000000,3.863580122379640,-4.61149977,-2.743791204,0.000152,0.000152
mp-1104686,Cs4Au6S5,-54.07392975,0.0,157,543.4304139191680,Cs4Au6S5,2.4949,5.725533062129540,-3.6049286500000000,-0.8454521124899430,0.0018094,0.0018094
mp-1219132,Re2MoSe4,-105.95353526,0.0,1,303.60455739037400,Re4Mo2Se8,1.0564,8.578163542643880,-7.568109661428570,-0.7352034741964280,0.000388,0.000194
mp-23719,BeAlH5,-49.01830832,0.015394044761906300,4,128.45559392224300,Be2Al2H10,3.4607,1.0608739699381900,-3.501307737142860,-0.13650503428571400,0.0001935,9.675E-05
mp-28569,NaInBr4,-68.38986138,0.00690822166666738,19,866.1740239435970,Na4In4Br16,3.1545,3.5077017683934900,-2.8495775575,-1.4352541252586200,3.5E-05,8.75E-06
mp-28980,K3BiSe3,-97.48498729,0.0,198,988.827270179593,K12Bi4Se12,2.0675,3.7828300428769500,-3.4816066889285700,-1.1540401769330400,0.0003571,8.9275E-05
mp-2961,MgSiP2,-39.06353658,0.0,122,169.41768954993400,Mg2Si2P4,1.3714000000000000,2.2413569226947600,-4.8829420725,-0.4198923016666670,9.97E-05,4.985E-05
mp-30216,K2ReI6,-59.23892468,0.0040493414814819500,14,762.3706864251860,K4Re2I12,0.2237,4.468774884575390,-3.291051371111110,-0.8982290634444440,5.9983136,2.9991568
mp-30459,ScNiBi,-17.88100996,0.0,216,61.207818809832100,Sc1Ni1Bi1,0.23440000000000000,8.481495669185910,-5.960336653333330,-0.6261232883333330,0.0011037,0.0011037
mp-33569,Sr(LaSe2)2,-79.77526324,0.0,122,386.0775987211690,Sr2La4Se8,1.8829000000000000,5.860360790455140,-5.6982330885714300,-2.318639720863100,0.0020765,0.00103825
mp-551740,Li4CO4,-52.27249717,0.1454804555555550,121,92.15644915420420,Li4C1O4,4.6749,1.869841554904070,-5.808055241111110,-2.040686775925930,0.0002085,0.0002085
mp-555863,P4PtF12,-89.56726476,0.0,217,300.12308679469100,P4Pt1F12,4.9933,3.0262525583432200,-5.268662632941180,-2.61467055372549,0.0017471,0.0017471
mp-557724,KBiF6,-67.83006725,0.0,132,304.330388613616,K2Bi2F12,2.6644,3.9511658364448500,-4.239379203125,-2.527215820375,0.0,0.0
mp-5967,TiCoSb,-21.11632204,0.0,216,51.1768011539075,Ti1Co1Sb1,1.0675,7.41611676208167,-7.038774013333330,-0.7251703294444440,0.001306,0.001306
mp-676723,Li2SO4,-80.849427,0.1076083346428540,1,165.07474877881400,Li4S2O8,5.5501,2.211934954465210,-5.7749590714285700,-2.27565341139881,0.0001605,8.025E-05
mp-705676,K4MoO8,-66.80791673,0.48119586884615300,1,258.8020466888930,K4Mo1O8,0.5756000000000000,2.440282735076900,-5.139070517692310,-1.1645376824615400,2.43E-05,2.43E-05
mp-752471,Li7FeO6,-71.40298039,0.06918681562499620,146,124.41111761193500,Li7Fe1O6,0.3228,2.6751563256128400,-5.1002128850000000,-1.8757675602381000,2.9963467,2.9963467
mp-753277,LiAgF2,-32.46967035,0.051393386250000000,31,109.52577717394800,Li2Ag2F4,1.2161,4.633436069307050,-4.05870879375,-2.1485995925,2.26E-05,1.13E-05
mp-753567,LiVF6,-83.0772039,0.02687212875000090,9,251.58493324828800,Li2V2F12,3.2557000000000000,2.268829799442120,-5.19232524375,-2.9436124010416700,0.0,0.0
mp-753671,PNO,-44.18610691,0.0,24,76.9815350810686,P2N2O2,5.1829,2.630746269744850,-7.364351151666670,-1.4810983394444400,0.0001327,6.635E-05
mp-753775,BaCaI4,-19.75692124,0.09717532624999990,25,266.87816553293000,Ba1Ca1I4,2.8006000000000000,4.262271705455380,-3.2928202066666700,-1.8753833450000000,0.0008541,0.0008541
mp-754739,CaBe3O4,-109.99340476,0.06251826937499950,190,159.3838156453290,Ca2Be6O8,3.9062,2.731981784439650,-6.8745877975,-3.091127485625,0.0009948,0.0004974
mp-778554,Li2MnF4,-76.91874634,0.03130799428571420,7,164.99909525003200,Li4Mn2F8,3.8589,2.91478854220077,-5.494196167142860,-3.0499423249425300,10.0005042,5.0002521
mp-1029791,MgSnN2,-94.78261097,0.0,33,229.16178288572200,Mg4Sn4N8,1.0621,4.957185026610060,-5.923913185625,-0.533702746875,0.0006553,0.000163825
mp-1100408,TaSnRh,-24.56166828,0.0,216,59.67170628278510,Ta1Sn1Rh1,1.1405000000000000,11.202498820875700,-8.18722276,-0.44333697500000000,4.09E-05,4.09E-05
mp-20261,Mn(GaSe2)2,-33.12516172,0.0,82,179.24581396655400,Mn1Ga2Se4,0.8787,4.72673219358566,-4.732165960000000,-0.8301869246151480,4.9999162,4.9999162
mp-38011,KHS,-10.95014297,0.003821666666666170,160,71.0540650569105,K1H1S1,3.2297000000000000,1.686647532537040,-3.6500476566666700,-0.9378560370416660,0.0004775,0.0004775
mp-4043,NbCu3Se4,-40.50326796,0.0,215,186.21333217621600,Nb1Cu3Se4,1.5207000000000000,5.344951230226390,-5.062908495,-0.7510871249218750,0.0004728,0.0004728
mp-4152,Ga2CoS4,-33.43823738,0.07421988791666580,82,147.21894442283700,Ga2Co1S4,0.3848000000000000,3.6842890438232000,-4.776891054285710,-0.8199897246428570,3.0014755,3.0014755
mp-561189,Rb6Si10O23,-275.35488887,0.012998631282050300,189,670.5994028936190,Rb6Si10O23,4.0483,2.876474206977130,-7.060381765897440,-3.0055497723076900,0.0038585,0.0038585
mp-753460,BaCa2I6,-59.73972929,0.04988527138888840,7,835.0315443729580,Ba2Ca4I12,3.8794000000000000,3.89330920428643,-3.3188738494444400,-1.8966242627777800,2E-07,1E-07
mp-756316,Li3SbS4,-66.38021304,0.0,31,359.9462692687680,Li6Sb2S8,2.1491,2.498958432483840,-4.148763315,-1.1000671515625,0.0002914,0.0001457
mp-759234,Li3CuF6,-178.42410904,0.0031694314999999300,33,412.8955746783050,Li12Cu4F24,0.9308000000000000,3.190962412869800,-4.460602726000000,-2.6083178185000000,8.0002319,2.000057975
mp-761872,Na2Sn2O3,-70.59138784,0.08403291535714090,199,242.83590233775400,Na4Sn4O6,0.7135000000000000,4.532269620464740,-5.042241988571430,-1.6926595154433500,0.0001277,6.385E-05
mp-8389,Na6ZnS4,-74.38172915,0.0,186,484.9373622847010,Na12Zn2S8,2.1583,2.2710042304203400,-3.3809876886363600,-1.2238336124373000,0.0003436,0.0001718
mp-9198,Fe(SiP)4,-54.37024354,0.0,1,144.9566503161710,Fe1Si4P4,1.0972000000000000,3.345922041511410,-6.041138171111110,-0.28286322037036900,1.3E-06,1.3E-06
mp-1078419,Na3PSe4,-29.32740417,0.0,217,200.94095913116800,Na3P1Se4,1.5220000000000000,3.435954688807420,-3.66592552125,-0.9813599840454380,0.0001145,0.0001145
mp-10955,Sn(HgSe2)2,-20.44811114,0.0,82,211.34870202547200,Sn1Hg2Se4,0.4817000000000000,6.566221135166290,-2.9211587342857100,-0.5336475206250000,0.0006761,0.0006761
mp-1209489,Rb2Pb2O3,-65.88956724,0.0,199,360.14732964397700,Rb4Pb4O6,2.0393000000000000,5.840251644447090,-4.70639766,-1.5393626171428600,0.0022704,0.0011352
mp-14588,Na2PtSe2,-39.54563216,0.0,36,233.90261587344100,Na4Pt2Se4,0.9850000000000000,5.664987971469840,-3.9545632160000000,-1.001806965558190,2E-07,1E-07
mp-16337,Ga2HgTe4,-21.04231774,0.0,82,236.1838036185550,Ga2Hg1Te4,1.1189,5.979166140976200,-3.0060453914285700,-0.5424630871428570,0.0007469,0.0007469
mp-26982,MnP2O7,-143.81926842,0.00773951524999994,4,247.26559234631600,Mn2P4O14,0.9800000000000000,3.0741556173256500,-7.190963421000000,-2.3762286869597700,6.0044635,3.00223175
mp-27192,CsBe2F5,-173.63627596,0.0,213,523.7705362654490,Cs4Be8F20,7.1685,3.1186390293082700,-5.42613362375,-3.47343075630388,0.0033187,0.000829675
mp-28146,LiGa5O8,-334.0863203,0.0,212,576.4584193244550,Li4Ga20O32,2.5223000000000000,5.571646671357730,-5.965827148214290,-2.3131777897023800,0.0006396,0.0001599
mp-625857,Zn(HO)2,-95.98650405,0.0014643140000032400,4,213.64203112987200,Zn4H8O8,2.9935,3.0910940869079300,-4.7993252025000000,-1.4859016605000000,0.0004318,0.00010795
mp-685991,Li5SiP3,-73.05880622,0.0,9,307.99948154371800,Li10Si2P6,1.2765,1.6789996040714600,-4.058822567777780,-0.591063026296296,8.77E-05,4.385E-05
mp-754594,VBO4,-46.1980463,0.0,82,87.51540459819790,V1B1O4,2.9644,2.3860136925329000,-7.699674383333330,-2.5151507398611100,2.42E-05,2.42E-05
mp-754977,LiFeO2,-48.53908857,0.03876719812500000,186,77.29666233949030,Li2Fe2O4,1.7778,4.072462084548670,-6.06738607125,-1.906172739583330,9.9991028,4.9995514
mp-755949,Ca4I6O,-83.77038994,0.08454307363636370,186,712.7745945130490,Ca8I12O2,3.2909,4.369266134177400,-3.8077449972727300,-2.066523523181820,0.0009192,0.0004596
mp-758604,LiAgF2,-32.45246132,0.05354451500000050,122,113.5247451584570,Li2Ag2F4,1.3824,4.47022088240165,-4.056557665,-2.1464484637500000,2.1E-06,1.05E-06
mp-13252,SnB4O7,-183.85875143,0.0,31,211.24164330743800,Sn2B8O14,3.9300000000000000,4.306957075932180,-7.660781309583330,-2.614625811805560,0.0010731,0.00053655
mp-1539101,TeSeO4,-63.5479118,0.0,46,199.1635791040520,Te2Se2O8,3.0796,4.511582555270490,-5.295659316666670,-1.348483245390630,0.0012946,0.0006473
mp-36577,Sr(AsS2)2,-32.21270827,0.037995832500001800,1,196.22049457898200,Sr1As2S4,1.6311000000000000,3.0949756928551400,-4.601815467142860,-0.9530255055952380,0.0007746,0.0007746
mp-551918,AlBiO3,-65.84209416,0.053335064249999700,161,113.6752137295990,Al2Bi2O6,3.0207000000000000,8.296037245622960,-6.584209416,-2.5005107850000000,0.0010866,0.0005433
mp-555320,Li4CO4,-104.7694175,0.13301250222222200,36,156.40738376050700,Li8C2O8,5.3513,2.203450425905600,-5.820523194444440,-2.05315472925926,0.0001444,7.22E-05
mp-555903,Al(IO3)3,-127.17913151,0.0,173,383.8462135647880,Al2I6O18,3.3467,4.773276461827560,-4.891505058076920,-1.3017925411538500,0.0001989,9.945E-05
mp-5784,Na2GeO3,-65.77422778,0.0,36,172.98074164767200,Na4Ge2O6,2.9833,3.1989140690697000,-5.481185648333330,-2.139358738850580,0.0014147,0.00070735
mp-625171,H7ClO3,-101.27111368,0.05108542500000010,1,216.75498456727500,H14Cl2O6,4.2299,1.3867274543393500,-4.60323244,-1.169914077272730,0.0007595,0.00037975
mp-676300,Sc3NbO7,-195.31989238,0.17333884034091300,13,252.94429451764900,Sc6Nb2O14,2.0596000000000000,4.4610709266979300,-8.878176926363640,-3.521318800000000,0.0005887,0.00029435
mp-7375,KNbO3,-38.27619618,0.0,160,68.41836472291560,K1Nb1O3,2.3605,4.368736603849280,-7.655239236,-2.8563218356,6.81E-05,6.81E-05
mp-752538,KSnO2,-84.93263374,0.018283639375000300,2,292.17796392144300,K4Sn4O8,2.2088,4.314933274746130,-5.30828960875,-1.8978164057500000,0.0008875,0.000221875
mp-759469,VO2F,-162.44106506,0.036577097708332400,9,310.51658464419800,V6O12F6,1.5549,3.2708049894874800,-6.768377710833330,-2.4295509489583300,0.0009257,0.00015428333333333300
mp-7998,Li2Ge2O5,-109.15484015,0.00017263944444589900,37,236.0197422484110,Li4Ge4O10,3.3005000000000000,3.3652512187815800,-6.064157786111110,-2.2454126229629600,0.0009522,0.0004761
mp-991652,VCu3Te4,-35.89342005,0.0,215,207.09263661673900,V1Cu3Te4,0.9711000000000000,6.029626921710660,-4.48667750625,-0.45333628125000000,0.0015137,0.0015137
mp-1007823,GaBN2,-28.35741619,0.3843638125000000,115,34.20630685154610,Ga1B1N2,3.4766000000000000,5.269414177336420,-7.0893540475,-0.674734636666666,0.0003231,0.0003231
mp-10615,BaLiP,-11.87171052,0.033294146666666500,187,77.05992272099750,Ba1Li1P1,0.6983000000000000,3.7762274036323200,-3.95723684,-0.876838105555556,0.0,0.0
mp-1190030,La3Sb4Au3,-101.47518108,0.0,220,538.4015026257310,La6Sb8Au6,0.6031000000000000,9.219643189355930,-5.073759054,-1.0359919645000000,0.0005377,0.00026885
mp-18849,Fe2P2O7,-79.18306047,0.00010782363635009100,2,128.4008318821070,Fe2P2O7,3.7487,3.693942525701890,-7.198460042727270,-2.3728828656060600,8.0000027,8.0000027
mp-22607,Zn(InSe2)2,-24.90191719,0.0,82,198.6665625088180,Zn1In2Se4,1.4557000000000000,5.106034930538040,-3.5574167414285700,-0.8633086013392850,0.0001064,0.0001064
mp-28782,Na3PS4,-65.87391186,0.0,114,352.4145360217280,Na6P2S8,2.552,2.1505362228532200,-4.11711949125,-1.1277847594360600,0.0005232,0.0002616
mp-29104,Ti3Zn2O8,-396.09213759,0.0,212,610.368604500675,Ti12Zn8O32,2.5899,4.3791538105158,-7.6171564921153800,-2.979183314423080,0.0019472,0.0004868
mp-29257,LaTlO3,-63.49465069,0.155897580125,186,158.82202214022200,La2Tl2O6,0.3504000000000010,8.182080686051080,-6.349465069,-2.3331584156666700,2.93E-05,1.465E-05
mp-32509,V(PO3)4,-246.60197815,0.012485954411767300,4,500.14325135044400,V2P8O24,1.7604,2.4358399777850600,-7.252999357352940,-2.5371965246078400,2.0013537,1.00067685
mp-571156,Mg(BH4)2,-88.59763345,0.020064910454552300,26,220.58000009542600,Mg2B4H16,6.0803,0.8128875478036390,-4.027165156818180,-0.32999497939394000,0.0003419,0.00017095
mp-755867,Lu2Sb2O7,-155.57145737,0.1443913386363710,46,301.25962695104500,Lu4Sb4O14,1.4236000000000000,7.77685987519008,-7.071429880454550,-2.7871907390909100,6.8E-06,3.4E-06
mp-756951,LiSbO3,-58.41222082,0.04113343949999940,12,123.56573172016400,Li2Sb2O6,2.7510000000000000,4.7491472037159600,-5.841222082,-2.0770606576666700,0.0010417,0.00052085
mp-765618,Mn6O7F5,-122.2756317,0.05479060576389210,1,200.88474206366100,Mn6O7F5,0.21300000000000000,4.435737455294650,-6.79309065,-2.2354121152825700,23.0002589,23.0002589
mp-775761,AgClO3,-78.1763588,0.03158372550000180,198,315.9833531991880,Ag4Cl4O12,2.9272,4.021646516273360,-3.90881794,-0.41602280433333300,0.0,0.0
mp-961713,ZrSnPt,-21.68205884,0.0,216,66.22548745926930,Zr1Sn1Pt1,1.0084,10.155428634479100,-7.227352946666670,-1.0179595483333300,0.0011464,0.0011464
mp-1019595,Ce5Zr3O16,-215.78519841,0.03950934541666660,21,312.6053998102560,Ce5Zr3O16,2.0072,6.534965703816110,-8.99104993375,-3.8458864443750000,0.0002028,0.0002028
mp-1228745,AsRhS,-71.9735233,0.0,198,200.37230686697300,As4Rh4S4,1.2477,6.957728585759210,-5.997793608333330,-0.778834894375,5.9E-06,1.475E-06
mp-13725,Li3PO4,-100.42379121,0.0,31,161.01966864845200,Li6P2O8,5.8384,2.388292851512730,-6.276486950625,-2.7534975597916700,0.0009158,0.0004579
mp-18105,CsAgSe4,-80.49428981,0.0,19,813.5939008789040,Cs4Ag4Se16,1.2751,4.544177201841700,-3.3539287420833300,-0.7166613610787830,0.0031135,0.000778375
mp-27032,MnP2O7,-71.45706423,0.05299651324999920,5,109.47358855659500,Mn1P2O7,0.9434,3.4717639190653400,-7.145706423,-2.33097168895977,3.0000407,3.0000407
mp-34042,KY3F10,-92.38660102,0.16686418535714200,160,231.12118730405300,K1Y3F10,6.2847,3.562179144543680,-6.59904293,-4.098714218428570,0.000661,0.000661
mp-3762,VCu3S4,-42.76816305,0.0,215,158.224284316624,V1Cu3S4,1.2083000000000000,3.88140759033464,-5.34602038125,-0.8566046878124990,0.0001987,0.0001987
mp-38194,YOF,-24.6965394,0.05588136166666760,216,40.26110299294690,Y1O1F1,5.6838,5.110313462328680,-8.232179800000000,-4.173209438055560,0.0002896,0.0002896
mp-541291,Na3MoN3,-170.09790323,0.0,9,438.09496498474600,Na12Mo4N12,1.4285,3.1373505126559900,-6.074925115357140,-0.5406817317364530,0.000777,0.00019425
mp-625823,Be(HO)2,-114.2182026,0.10856753750000100,19,145.13767848639100,Be4H8O8,5.0669,1.9691037092316800,-5.71091013,-1.901552737,0.0002342,5.855E-05
mp-675801,KNbCl6,-67.55971116,0.0,4,559.4151276594330,K2Nb2Cl12,2.1642,2.0465141144039200,-4.2224819475,-1.895116454125,0.0001365,6.825E-05
mp-7264,Nd(PO3)3,-196.3993221,0.0,20,361.6483503903010,Nd2P6O18,5.4873,3.500237507305630,-7.553820080769230,-2.987920098076920,0.0018329,0.00091645
mp-752636,LiSbO3,-115.87090068,0.08881048749999910,198,218.24375667597400,Li4Sb4O12,1.1981000000000000,5.377765286043910,-5.793545034,-2.0293836096666700,0.0015197,0.000379925
mp-755478,CdBiO3,-49.61682152,0.0,146,152.3476327879380,Cd2Bi2O6,0.7926000000000000,8.052450180825030,-4.961682152,-1.442520735,1.26E-05,6.3E-06
mp-768269,Li3SbS4,-65.41747781,0.060170951875000400,9,344.2207988737380,Li6Sb2S8,1.5049000000000000,2.6131214841559400,-4.088592363125,-1.0398961996875000,0.0003421,0.00017105
mp-866580,Ca2SnS4,-101.39079805,0.07280721559523860,189,474.06939854853100,Ca6Sn3S12,0.8703000000000000,3.4375062239646900,-4.82813324047619,-1.6060516572619000,0.0013367,0.00044556666666666700
mp-9437,NbFeSb,-23.71454015,0.0,216,53.16710327877050,Nb1Fe1Sb1,0.7429999999999990,8.44873402439512,-7.904846716666670,-0.4020751400000000,1.03E-05,1.03E-05
mp-984055,Ca7(H6Cl)2,-75.80163533,0.0,174,277.46125359879900,Ca7H12Cl2,3.6964000000000000,2.1757432908779400,-3.6096016823809500,-0.9870785861904760,0.0025099,0.0025099
mp-1008528,B2AsP,-24.21813191,0.06785272175000130,115,51.2840712082363,B2As1P1,1.4447,4.128914812768750,-6.0545329775,-0.196731864166666,0.0001896,0.0001896
mp-1014244,ZrZnN2,-29.93707411,0.0,156,50.67751235060480,Zr1Zn1N2,2.0033,6.050268580387230,-7.4842685275,-1.0446600050000000,0.0004845,0.0004845
mp-1029418,KSi2N3,-84.85193175,0.0,36,137.5582363101330,K2Si4N6,3.71,3.314587599336360,-7.070994312500000,-1.0897423521666700,0.0,0.0