material_id,pretty_formula,final_energy,e_above_hull,spacegroup.number,volume,full_formula,band_gap,density,final_energy_per_atom,formation_energy_per_atom,magnetism.total_magnetization,total_magnetization
mp-7117,LiAlSe2,-68.01304562,0.0,33,382.54234379093500,Li4Al4Se8,3.0248000000000000,3.3309988831470900,-4.25081535125,-1.3252349382552100,0.000128,3.2E-05
mp-753785,NbOF3,-140.05374084,0.033699999000000400,136,337.99659791129200,Nb4O4F12,3.2785,3.2602112106548700,-7.002687042,-3.2605464525000000,0.0019831,0.000495775
mp-755559,LiNbO3,-78.02973666,0.05516616999999970,12,125.0137888789660,Li2Nb2O6,3.4523,3.9276205227540700,-7.802973666,-2.844351481666670,0.0001292,6.46E-05
mp-760405,ErBO3,-82.80074711,0.09317263099999980,40,117.21055077696300,Er2B2O6,4.566700000000000,6.405482703178710,-8.280074711000000,-3.4740759918333300,0.0,0.0
mp-7787,HfSO,-106.9126761,0.0072270337500004400,198,185.05852396261200,Hf4S4O4,2.8696,8.131534259640560,-8.909389675,-2.958856434375000,0.0001355,3.3875E-05
mp-9538,Ag3AsS4,-60.68704001,0.0,31,374.21641439137200,Ag6As2S8,0.35760000000000000,4.675097249640740,-3.792940000625,-0.3316167653125000,0.0001065,5.325E-05
mp-1103261,SiPtSe,-67.77788357,0.0,29,217.329302997563,Si4Pt4Se4,0.9747999999999990,9.2338737759252,-5.648156964166670,-0.8081125616145840,3.5E-06,8.75E-07
mp-12171,K6MgO4,-85.50843657,0.0,186,429.13445758945800,K12Mg2O8,1.6783000000000000,2.4988692239725900,-3.886747116818180,-1.5861545939090900,1.3E-06,6.5E-07
mp-28514,Ba(BrO3)2,-82.43893506,0.005518308888888160,43,345.8992900932350,Ba2Br4O12,4.3788,3.774567145432370,-4.579940836666670,-1.1623183205555600,0.0002748,0.0001374
mp-28932,Sn4OF6,-221.79342385,0.0,19,929.7479862483790,Sn16O4F24,3.2310000000000000,4.320928072041700,-5.040759632954550,-2.404748521136360,0.0009653,0.000241325
mp-35327,Al(CN)3,-112.6336941,0.34263385035714000,113,281.3474776903530,Al2C6N6,5.0839,1.2398378523820200,-8.045263864285710,-0.13777776357142800,0.0,0.0
mp-36248,H4BrN,-26.7601926,0.010539855833333600,215,67.00251897512450,H4Br1N1,4.0523,2.4273308466102400,-4.4600321,-0.6851434337500000,0.0004808,0.0004808
mp-4829,Na2ThF6,-53.36371951,0.0,150,123.79796623228200,Na2Th1F6,6.5168,5.258120530748770,-5.929302167777780,-3.845326318678160,0.0002048,0.0002048
mp-550798,Li4CO4,-51.05750872,0.28047917222222200,5,144.8744531438760,Li4C1O4,2.9837,1.1894295677499800,-5.673056524444440,-1.9056880592592600,0.0002369,0.0002369
mp-625211,LiH3O2,-59.65027737,0.0023530979166670500,2,94.69517392407780,Li2H6O4,4.726,1.4717166144459500,-4.9708564475,-1.5360192788888900,0.001733,0.0008665
mp-625993,Te(HO)6,-65.29589578,0.06036255307691900,1,131.24756094442500,Te1H6O6,2.0005000000000000,2.905447515274770,-5.022761213846150,-1.2484978884615400,7.62E-05,7.62E-05
mp-754215,Mn4OF6,-145.48117521,0.078784755454544,186,268.85818979061900,Mn8O2F12,1.7613,4.320197598255570,-6.612780691363640,-2.709699238793100,0.0,0.0
mp-23683,H2CO,-136.99023736,0.232094333958333,161,219.72160809435600,H12C6O6,6.2978000000000000,1.3615223346136900,-5.707926556666670,-0.7291281079166680,0.0005929,9.88166666666667E-05
mp-4690,K3TaO8,-72.20247369,0.013432637083333500,121,192.42006736504100,K3Ta1O8,3.0685,3.678331616607990,-6.0168728075,-1.7624842649166700,0.0001593,0.0001593
mp-541950,GaN5O14,-122.06214418,0.0,5,277.4425314608750,Ga1N5O14,1.2568,2.1770920531580500,-6.103107209,-0.8849059731250010,0.0,0.0
mp-550433,BeZnO2,-46.22867629,0.04856103250000030,122,74.39087356573180,Be2Zn2O4,2.917,4.750973583385160,-5.77858453625,-2.3983149150000000,0.0005742,0.0002871
mp-559377,IOF3,-73.50227212,0.0,19,356.2503640452420,I4O4F12,3.6374,3.727044399719170,-3.675113606,-1.6484315015,0.0,0.0
mp-567278,Sr(Si3N4)2,-117.59841065,0.0,44,179.64138880656500,Sr1Si6N8,3.2765000000000000,3.4033817994858700,-7.8398940433333300,-1.3035382451111100,0.0003692,0.0003692
mp-626543,H3NO,-103.20777161,0.20541985891666900,1,235.2737462591900,H12N4O4,2.4708000000000000,0.9324877662508060,-5.160388580500000,-0.6774617674999990,0.0,0.0
mp-675625,KNO3,-58.60880306,0.011764387500000400,1,179.0882268732530,K2N2O6,3.0749,1.8748950312305200,-5.860880306,-1.4149249286,0.0014717,0.00073585
mp-755568,GaBiO3,-58.54592588,0.051112547500000700,161,125.04979164817900,Ga2Bi2O6,3.0727,8.67655615847845,-5.854592588,-1.9143899185000000,0.0001172,5.86E-05
mp-756773,Li(CoO2)2,-80.37979966,0.042721320535711100,160,134.1195938723090,Li2Co4O8,0.6022000000000000,4.675201479696010,-5.741414261428570,-1.4709281933333300,6.0001691,3.00008455
mp-1101765,BiRhSe,-63.79657787,0.0,198,259.97197860323700,Bi4Rh4Se4,0.3186,9.985920628175820,-5.316381489166670,-0.5569636032812500,4E-07,1E-07
mp-22756,K2PbO3,-56.52006725,0.0046115183333332900,36,234.26037089747000,K4Pb2O6,1.5348,4.726493754623120,-4.710005604166670,-1.5906176076666700,0.0001891,9.455E-05
mp-27949,Si2H6O,-159.45250738,0.04579177305555420,19,531.3435170250040,Si8H24O4,5.2606,0.9777788340025560,-4.429236316111110,-0.6076868366666670,0.0006023,0.000150575
mp-3082,CaSO4,-117.55165815,0.002761660833336950,180,273.8467378663570,Ca3S3O12,5.684,2.476569046742010,-6.530647675,-2.7501653805208300,0.0007785,0.0002595
mp-626149,Mg(HO)2,-25.74756094,0.24152473400000000,156,45.78180606979330,Mg1H2O2,4.1369,2.115296780646380,-5.149512188,-1.7679813580000000,0.0001364,0.0001364
mp-626720,BaH4O3,-84.65813413,0.02044255375000060,4,178.53863968337300,Ba2H8O6,4.2176,3.522314611226380,-5.291133383125,-1.7570386300000000,0.0001748,8.74E-05
mp-676851,KNO3,-29.30795076,0.01105454150000010,155,90.53278128708850,K1N1O3,3.048,1.854420144520810,-5.861590152,-1.4156347746000000,9.15E-05,9.15E-05
mp-752767,LiAgF2,-16.34311269,0.024324007499999700,5,50.84387819326050,Li1Ag1F2,1.8451,4.990578064754390,-4.0857781725,-2.1756689712500000,1E-07,1E-07
mp-754610,Sr3CaI8,-38.61877803,0.08067419874999440,8,511.4751235434970,Sr3Ca1I8,2.9772,4.279541514907840,-3.2182315025,-1.8653830725,0.0003303,0.0003303
mp-776816,Li2FeF5,-159.94366779,0.08918047121527640,62,352.5859877440170,Li8Fe4F20,3.6654,3.1030428954935400,-4.9982396184375,-2.838333490833330,20.0000001,5.000000025
mp-7907,Al2ZnSe4,-28.55195883,0.0,82,174.34513513344700,Al2Zn1Se4,2.1529,4.145149538549380,-4.0788512614285700,-1.1007739499107100,0.0016361,0.0016361
mp-7913,BeSiN2,-122.88379803,0.0,33,135.64942090282500,Be4Si4N8,5.165800000000000,3.1882036682500800,-7.680237376875,-1.4013081931250000,0.0,0.0
mp-1221979,Mn(InTe2)2,-29.16425554,0.0,82,249.91184921993800,Mn1In2Te4,0.3445000000000000,5.282204356359940,-4.16632222,-0.5162384382758620,4.9982496,4.9982496
mp-23400,In(IO3)3,-118.37980837,0.0,173,443.9770309589860,In2I6O18,3.4261000000000000,4.783841729010190,-4.553069552692310,-1.0398102742307700,0.0021644,0.0010822
mp-28719,Ba(AuF4)2,-88.78178154,0.0,82,391.1036171515790,Ba2Au4F16,2.5159,5.801833016387260,-4.0355355245454500,-2.2116659200000000,8.13E-05,4.065E-05
mp-30148,BC2N,-67.72609387,0.5420403050000020,17,47.44076552588580,B2C4N2,2.1099000000000000,3.4189681649775500,-8.46576173375,-0.1886497097916650,0.0003188,0.0001594
mp-37839,Li7RuO6,-75.95576302,0.009826722857145140,1,127.17058053447900,Li7Ru1O6,0.6366,3.207637063766650,-5.425411644285720,-1.9823676620238100,3.0000126,3.0000126
mp-505077,NaH9O5,-292.71531641,0.013302177833333300,19,529.1519375470380,Na4H36O20,4.5248,1.4066059613505200,-4.8785886068333300,-1.334464291936780,0.0011548,0.0002887
mp-752917,Na3VO4,-46.6013053,0.019046414999997400,121,123.92909788860900,Na3V1O4,3.9304,2.46420817303952,-5.8251631625,-2.2757474162069000,0.0001168,0.0001168
mp-753251,Li5(CoO3)2,-68.49013538,0.11082865730769600,1,145.77065158573200,Li5Co2O6,0.9509000000000000,2.831547513188350,-5.268471952307690,-1.7260861097435900,8.9995849,8.9995849
mp-760386,CsClO3,-21.29465381,0.0674473406249998,160,109.0794275572190,Cs1Cl1O3,5.531,3.293642814638610,-4.258930762,-1.153566352586210,4.85E-05,4.85E-05
mp-769025,K2Mg2O3,-136.05958416,0.027778716785714900,96,437.84892942951900,K8Mg8O12,2.9231000000000000,2.651784027951360,-4.8592708628571400,-2.258665004428570,0.0,0.0
mp-1014251,HfZnN2,-31.85289102,0.0,156,49.13364610504080,Hf1Zn1N2,2.2797,9.189653092865880,-7.963222755,-1.1712421775000000,0.0005454,0.0005454
mp-1016197,MgSiAs2,-35.17072671,0.0,122,192.84478935553700,Mg2Si2As4,1.3028,3.4827693354362600,-4.39634083875,-0.3103831187500000,0.0002076,0.0001038
mp-1020712,ZnSiN2,-105.94539908,0.0,33,169.30416980526600,Zn4Si4N8,3.2383000000000000,4.767008753124060,-6.6215874425,-0.9625755725000010,0.0013353,0.000333825
mp-1105876,Cs6Fe2O5,-57.34667223,0.00504330576922829,8,353.38985025851000,Cs6Fe2O5,0.2266000000000000,4.647762014450390,-4.41128247923077,-1.4031873901989400,7.9981087,7.9981087
mp-1214087,Ca3AsI3,-103.69815553,0.0,214,983.7844487330850,Ca12As4I12,2.1921,3.8880589730025800,-3.703505554642860,-1.6876547132142900,0.0001572,3.93E-05
mp-14659,KAsSe2,-60.94753007,0.0,9,548.7777165602140,K4As4Se8,1.7276000000000000,3.291437054315960,-3.809220629375,-0.8548855525468740,0.0021215,0.000530375
mp-21855,VCu3Se4,-39.26422693,0.0,215,180.4138443927780,V1Cu3Se4,0.9895,5.130520106979630,-4.90802836625,-0.7233818674218750,0.0004896,0.0004896
mp-23376,GaSeBr7,-44.66391303,0.023736791805555300,7,704.888972191964,Ga2Se2Br14,2.1839,3.3357875394945400,-2.481328501666670,-0.8986020852604170,0.0005373,0.00026865
mp-27699,S3(NCl)2,-62.74551328,0.16213075127551100,4,340.8299973844070,S6N4Cl4,1.7395,1.9012122532794500,-4.481822377142860,-0.2931919813392850,0.0047952,0.0023976
mp-28108,Na4SnTe4,-112.63088575,0.0,19,1198.4425078432200,Na16Sn4Te16,0.9417,3.9963982066350700,-3.128635715277780,-0.885871632078544,0.0003681,9.2025E-05
mp-570957,CsSiTe3,-72.39846387,0.0,9,832.7003749704760,Cs4Si4Te12,1.2613000000000000,4.337628020045350,-3.6199231935,-0.7229993570862060,0.0006102,0.00015255
mp-772840,Sm2Ge2O7,-325.12329798,0.022230645227272900,92,621.6915819285120,Sm8Ge8O28,4.0217,5.961630183406710,-7.389165863181820,-2.979169952727270,1.69E-05,4.225E-06
mp-777483,Ge2N2O,-66.41045457,0.06919591799999750,9,133.6018589244850,Ge4N4O2,2.3677,4.705444848694300,-6.641045457,-0.7494441440000000,2.36E-05,1.18E-05
mp-1078751,Na2PdSe2,-37.71097342,0.0,36,232.13549760902100,Na4Pd2Se4,0.8081,4.439628770400860,-3.771097342,-0.9965462715581900,0.002019,0.0010095
mp-12411,Li2ZnGe,-10.9902184,0.01721783625000000,216,58.83252865508600,Li2Zn1Ge1,0.07449999999999960,4.2882290918800200,-2.7475546,-0.3224003004166670,0.0010421,0.0010421
mp-14794,K6CoS4,-80.94849673,0.02779948109427590,186,642.9668949860720,K12Co2S8,0.45130000000000000,2.178610271498420,-3.679477124090910,-1.1063397655000000,5.990735,2.9953675
mp-17250,K3SbO3,-132.06163171,0.0,198,620.6653203419290,K12Sb4O12,3.3188,3.071947931461930,-4.716486846785710,-1.8246181187857100,0.0019794,0.00049485
mp-20817,GePtSe,-63.3733615,0.0,29,227.74110304286500,Ge4Pt4Se4,0.6271999999999990,10.111171291847100,-5.2811134583333300,-0.7084977774479170,0.0,0.0
mp-21374,Cd(InTe2)2,-21.62921115,0.0,82,261.1977448727810,Cd1In2Te4,1.2796000000000000,5.419348265795390,-3.089887307142860,-0.6168214585714290,0.0003203,0.0003203
mp-35795,BiPbF5,-33.63339886,0.054075811428568900,1,111.52184678284100,Bi1Pb1F5,4.2907,7.611259955093470,-4.804771265714290,-2.683331806071430,3.4E-06,3.4E-06
mp-3652,Ta9(FeS3)2,-322.34277308,0.0,189,621.7485182106320,Ta18Fe4S12,0.03149999999999940,10.323067411350300,-9.480669796470590,-0.9241571628676470,0.0011242,0.0005621
mp-545974,AlPO4,-89.72707106,0.010665070000015000,186,214.89069242811500,Al2P2O8,5.3246,1.8847494364999500,-7.477255921666670,-3.1101355288888900,0.0,0.0
mp-625488,Zn(HO)2,-23.50395524,0.0999984685000026,5,42.08831983365680,Zn1H2O2,2.5046,3.922629970444050,-4.700791048,-1.3873675060000000,1.1E-05,1.1E-05
mp-626554,NaH9O5,-145.88324173,0.029116060333333100,1,273.72534892453200,Na2H18O10,4.2012,1.359589589963500,-4.862774724333330,-1.318650409436780,0.0,0.0
mp-754840,TaAsO4,-97.94683313,0.05575612187499780,7,160.45302360056300,Ta2As2O8,2.8095000000000000,6.620651584373200,-8.162236094166670,-2.568779418333330,0.0006633,0.00033165
mp-973793,Li8SeN2,-84.32626743,0.0,109,251.60314700178300,Li16Se2N4,2.0446,2.1449646102819300,-3.833012155909090,-0.7197135867282200,8.28E-05,4.14E-05
mp-1029404,KGe2N3,-72.15958527,0.0,36,162.04060003744300,K2Ge4N6,1.5723000000000000,4.640113499072000,-6.0132987725,-0.29947553383333200,6.2E-06,3.1E-06
mp-1226003,CoPS,-73.25889097,0.0,198,158.83228228399600,Co4P4S4,1.1303,5.1007061465253200,-6.104907580833330,-0.7198841913194440,0.0313947,0.007848675
mp-29513,CsXeF7,-94.76346206,0.0,198,683.7277560562570,Cs4Xe4F28,3.2665000000000000,3.858523980572480,-2.6323183905555600,-1.4014373556034500,0.0004399,0.000109975
mp-29703,BaSi7N10,-287.65159763,0.0,7,436.6374039035770,Ba2Si14N20,3.9124,3.605202195179840,-7.990322156388890,-1.3430378108333400,0.0009176,0.0004588
mp-3934,Cu3PS4,-72.81255806,0.0,31,279.7436584266370,Cu6P2S8,1.3616000000000000,4.153629307407800,-4.55078487875,-0.5201946307291670,0.0007013,0.00035065
mp-625686,H4N2O3,-188.93584125,0.5057898204444480,33,320.95315323734200,H16N8O12,4.7875,1.6565050065563700,-5.2482178125,-0.46746480750000100,0.0017361,0.000434025
mp-638424,Sb2S2O9,-313.29028906,0.0,92,776.5505385365930,Sb8S8O36,4.0328,3.8631020921433000,-6.024813251153850,-1.8806939235576900,0.1547234,0.03868085
mp-754323,TmBiO3,-70.6696348,0.03002034025000010,161,155.422468802458,Tm2Bi2O6,3.2028000000000000,9.10093457425762,-7.06696348,-2.837212930333330,3.65E-05,1.825E-05
mp-768310,LaBiO3,-70.55616278,0.03519446060000140,161,174.44004834340700,La2Bi2O6,3.0885000000000000,7.537041755290870,-7.055616278,-2.733831392,1.66E-05,8.3E-06
mp-8017,AlCuTe2,-30.97878639,0.0,122,223.8496986424190,Al2Cu2Te4,1.6873000000000000,5.129281725429770,-3.87234829875,-0.5505022087500000,0.0004471,0.00022355
mp-983589,Ag2GeO3,-121.16771979,0.0,19,358.2649501686050,Ag8Ge4O12,0.29270000000000000,6.236313812434950,-5.04865499125,-1.2034845118055600,0.0,0.0
mp-1029403,RbGe2N3,-70.89878283,0.05971022115384630,36,166.57624252464200,Rb2Ge4N6,1.0881000000000000,5.438251544153280,-5.9082319025,-0.2160528095833330,3.8E-06,1.9E-06
mp-1189171,Zn2NCl,-58.31355655,0.0,33,276.251299467393,Zn8N4Cl4,1.9705000000000000,4.33457745558412,-3.644597284375,-0.7122175831250000,5E-07,1.25E-07
mp-18262,HoAgS2,-167.7744746,0.0,92,733.7350798514560,Ho8Ag8S16,1.7800000000000000,6.100108722892040,-5.24295233125,-1.5724861794791700,0.0024108,0.00030135
mp-23339,NaBrO3,-83.02743084,0.0,198,317.2148470744820,Na4Br4O12,4.5138,3.159524368250210,-4.151371542,-1.0029033018103400,0.0001241,3.1025E-05
mp-23558,Ag2BiO3,-111.45064122,0.0,34,382.0813143570560,Ag8Bi4O12,0.4484000000000000,8.217745232464010,-4.6437767175,-0.9207718288888880,0.0010516,0.0002629
mp-23904,BaH4O3,-84.98521499,0.0,26,178.0491972118000,Ba2H8O6,4.2654,3.5319971618695300,-5.311575936875,-1.7774811837500000,0.0007254,0.0003627
mp-28989,Li10BrN3,-53.40855886,0.0,187,185.96383588805100,Li10Br1N3,1.4357,1.7084921178654100,-3.8148970614285700,-0.6635651804166670,0.0002352,0.0002352
mp-34467,Zn(GaS2)2,-28.92572377,0.00857716999999969,121,149.2738480614720,Zn1Ga2S4,1.8997000000000000,3.7056087074453200,-4.132246252857140,-1.0108555210714300,0.0008867,0.0008867
mp-38394,Ba(AlTe2)2,-28.21594301,0.008977137857141490,97,254.6102068426760,Ba1Al2Te4,1.9531,4.576343581371570,-4.030849001428570,-1.1315166857142900,0.000872,0.000872
mp-555218,Ba4Br6O,-96.60317852,0.0,186,770.0527890925240,Ba8Br12O2,4.181,4.5057100717682600,-4.391053569090910,-2.7042861436363600,0.0036482,0.0018241
mp-568450,SrAlH5,-98.2603291,0.0,19,297.21604640000000,Sr4Al4H20,3.5010000000000000,2.673731153860230,-3.509297467857140,-0.4373403952380950,1E-07,2.5E-08
mp-626046,H7NO6,-291.82141836,0.05906308267857700,19,531.0760974836870,H28N4O24,3.2664,1.4640501588802800,-5.211096756428570,-1.0931436657142900,0.0003411,8.5275E-05
mp-644385,HCN,-20.0118901,0.4600104583333340,107,46.343912863539900,H1C1N1,6.8735,0.9683393154627960,-6.670630033333330,0.19437052333333300,6.5E-06,6.5E-06
mp-644419,LiHS,-46.96168464,0.0003881124999995930,26,190.98589048878900,Li4H4S4,3.5253,1.3916150645168000,-3.9134737200000000,-0.9351074604861110,0.0004467,0.000111675
mp-760360,Hf3N2O3,-165.87003158,0.0705738506250011,36,226.26540487845600,Hf6N4O6,3.3014000000000000,8.975204016296820,-10.36687697375,-3.0411970468750000,0.0004894,0.0002447
mp-991676,NbCu3Te4,-37.30438832,0.0,215,214.1233453133360,Nb1Cu3Te4,1.3512000000000000,6.157085103300050,-4.66304854,-0.5025324437500010,0.0042027,0.0042027
mp-1017534,ZnCdSe2,-11.79392842,0.012701830000000100,115,106.65225975845400,Zn1Cd1Se2,1.8588,5.227356527493460,-2.948482105,-0.8908680236718750,0.0005875,0.0005875
mp-1029288,Mg2MnN3,-81.35899411,0.019448594097223500,36,143.95467804228800,Mg4Mn2N6,0.017100000000000100,3.3583013058316300,-6.779916175833330,-0.7317394813218390,4.0013444,2.0006722
mp-1221515,MnZn4Se5,-38.17949695,0.0,8,240.58026148844500,Mn1Zn4Se5,0.6375000000000000,4.910063632732820,-3.8179496950000000,-0.8858949829649790,5.002164,5.002164
mp-12954,CuBS2,-40.83246708,0.0,122,113.79508877320300,Cu2B2S4,1.9146000000000000,4.04170472021963,-5.104058385,-0.592683841354166,0.0001098,5.49E-05
mp-20731,In2HgSe4,-22.97626638,0.0,82,213.49303132577400,In2Hg1Se4,1.1169,5.802867342173680,-3.282323768571430,-0.7247960920535710,0.0002544,0.0002544
mp-22988,CsGeCl3,-17.78564133,0.0,160,168.03698009888600,Cs1Ge1Cl3,2.848,3.0822353931951300,-3.5571282660000000,-1.7127202245862100,0.0003682,0.0003682
mp-28792,P4N3Cl11,-77.51390197,0.004462182499999300,146,513.2808405470890,P4N3Cl11,2.6579000000000000,1.7984123288543100,-4.306327887222220,-1.019683550462960,0.0008654,0.0008654
mp-30159,AuBrF6,-47.98836855,0.0,4,286.99550098024200,Au2Br2F12,1.9743,4.522997317373720,-2.999273034375,-1.2983120046875000,0.0,0.0
mp-3716,TbNiSb,-17.25112866,0.0,216,64.6226087106751,Tb1Ni1Sb1,0.3842000000000000,8.720658048206910,-5.75037622,-0.9665415466666660,0.0010406,0.0010406
mp-38125,Sm2CdSe4,-68.57877656,0.10514334392857000,122,352.90843566069800,Sm4Cd2Se8,1.4031000000000000,6.860050379086340,-4.89848404,-1.6905257627678600,0.0005021,0.00025105
mp-5029,Ho2Cu2O5,-248.78598007,0.0456732523611052,33,478.01594760064700,Ho8Cu8O20,0.4991000000000000,7.46105529317365,-6.910721668611110,-2.6142732125,8.0029852,2.0007463
mp-625819,H8N2O,-216.98762545,0.03191122715907820,7,402.6039164777750,H32N8O4,3.8964,0.8591547202153120,-4.9315369420454500,-0.6266497406818180,1.93E-05,4.825E-06
mp-754009,ScBiO3,-73.84874837,0.021432376875000400,161,141.5365353662610,Sc2Bi2O6,3.2425,7.08472976865481,-7.384874837,-2.7837975510000000,6.57E-05,3.285E-05
mp-768573,Lu3AlO6,-164.39599176,0.032241966500000900,36,248.25824130148400,Lu6Al2O12,4.215,8.667009661654380,-8.219799588000000,-3.9323802460000000,0.0006338,0.0003169
mp-772813,Ca2Cu2O5,-208.57968385,0.0,33,483.11724922293000,Ca8Cu8O20,1.0059000000000000,3.949199039800120,-5.793880106944450,-2.070055870833330,0.0001997,4.9925E-05
mp-1029408,Mg2NbN3,-88.07935945,0.03125707916666710,36,162.4713882238900,Mg4Nb2N6,2.5163000000000000,3.7516697372742300,-7.3399466208333300,-1.1352216350000000,3.26E-05,1.63E-05
mp-1102531,PRhSe,-72.57333723,0.0,198,201.89918226255800,P4Rh4Se4,1.1892000000000000,7.002067180196900,-6.047778102500000,-0.7806041510590290,1.35E-05,3.375E-06
mp-20310,LiInSe2,-60.51732158,0.0012425962500000100,33,436.78782695621400,Li4In4Se8,1.6262,4.2530297498806200,-3.78233259875,-1.1052252107552100,0.0003943,9.8575E-05
mp-29738,TlClO3,-20.60324294,0.06199097788889050,160,94.23296052646890,Tl1Cl1O3,4.4344,5.072115205708990,-4.120648588,-0.7218360236666670,0.0001727,0.0001727
mp-36641,Cd(Ga3Te5)2,-56.33155669,0.00442593764707544,5,567.4804269459880,Cd1Ga6Te10,1.0979,5.286838374649410,-3.3136209817647100,-0.5898283232352940,0.0021056,0.0021056
mp-626012,Te(HO)6,-65.43239594,0.049862540769225900,1,133.7167081199830,Te1H6O6,2.2333,2.851796945896140,-5.033261226153850,-1.2589979007692300,5.99E-05,5.99E-05
mp-632282,NaHF2,-16.75010213,0.19061178250000000,5,39.91848798000620,Na1H1F2,6.677200000000000,2.578863088530500,-4.1875255325,-2.2839732141379300,1.24E-05,1.24E-05