material_id,pretty_formula,final_energy,e_above_hull,spacegroup.number,volume,full_formula,band_gap,density,final_energy_per_atom,formation_energy_per_atom,magnetism.total_magnetization,total_magnetization
mp-625583,H7BrO3,-100.27120485,0.03164278287878380,1,232.99222553921600,H14Br2O6,3.7349000000000000,1.9236922220298600,-4.557782038636360,-1.1364276547727300,0.0007791,0.00038955
mp-626229,H4SO5,-214.15958361,0.029176148250000400,1,399.85393643838900,H16S4O20,5.2569,1.9284864426806800,-5.35398959025,-1.5030736830625000,0.0009913,0.000247825
mp-697136,Be(HO)2,-116.18194352,0.01038049150000030,19,150.3764768861550,Be4H8O8,5.7096,1.9005043007703300,-5.809097176,-1.9997397830000000,0.0003177,7.9425E-05
mp-763098,Li2MnF4,-38.02870341,0.09283224571428580,82,98.56012460681560,Li2Mn1F4,4.0072,2.439817696187400,-5.432671915714290,-2.9884180735139600,5.0002343,5.0002343
mp-1212441,Hf3Ni3Sb4,-138.79264999,0.0,220,374.87409128143800,Hf6Ni6Sb8,0.7419999999999990,10.618529784976100,-6.9396324995,-0.6436343445000010,0.0001418,7.09E-05
mp-19752,FePO4,-255.692546,0.010440779444444100,181,593.6507742800750,Fe6P6O24,2.6178,2.531149340659350,-7.102570722222220,-2.3240448927777800,0.0,0.0
mp-23910,CrHO2,-110.06084103,0.0,160,145.70978184705500,Cr4H4O8,3.0588000000000000,3.874840379353750,-6.878802564375,-1.9866286831250000,0.0,0.0
mp-30539,Y2WO6,-306.39078104,0.0007405236111122090,19,487.0632069016800,Y8W4O24,3.7864000000000000,6.2410179051662000,-8.510855028888890,-3.2865400592592600,0.0002754,6.885E-05
mp-4309,BaGa4S7,-109.1515166,0.0,31,574.1367064635560,Ba2Ga8S14,2.5893000000000000,3.7059612945072000,-4.547979858333330,-1.2591878593229200,0.0038178,0.0019089
mp-626201,H5ClO6,-222.4933422,0.0032987279166851700,19,479.1369068837080,H20Cl4O24,5.7309,1.8921145873664300,-4.6352779625,-0.9371168862500000,0.0007165,0.000179125
mp-644097,BaAlH5,-99.60109597,0.0,33,331.56226740632500,Ba4Al4H20,2.7635000000000000,3.392537615995730,-3.5571819989285700,-0.4524424439285720,0.0014136,0.0003534
mp-677323,Li11TiSb5,-59.23411692,0.03841707519607770,8,348.78547398874400,Li11Ti1Sb5,0.10220000000000000,3.4898386437970800,-3.4843598188235300,-0.6267921864705880,0.0012978,0.0012978
mp-752580,RbNO2,-68.5963078,0.01165747026041600,152,221.55425238950600,Rb3N3O6,2.3747000000000000,2.9561592500739800,-5.7163589833333300,-1.2566212314583300,0.0003444,0.00011480000000000000
mp-754743,Na2FeO2,-100.01116384,0.06757501599999480,36,270.89642658379400,Na8Fe4O8,0.6485000000000000,3.2812375490376800,-5.000558192,-1.524361982620690,2E-07,5E-08
mp-755132,Zr3N2O3,-154.73086736,0.03159064437500090,8,237.06657563372100,Zr6N4O6,2.6982000000000000,4.898735953789460,-9.67067921,-2.8735573656250000,0.0004737,0.00023685
mp-1019380,Al3BN4,-60.23249385,0.2518434000000000,215,75.09189463984230,Al3B1N4,3.6069000000000000,3.2679755380978400,-7.52906173125,-1.3017993611458300,0.0004681,0.0004681
mp-14795,K6CoSe4,-75.94523783,0.020273857020202300,186,724.6774305227440,K12Co2Se8,0.4344000000000000,2.7926109364492500,-3.452056265,-1.1005692297613600,5.9993929,2.99969645
mp-15074,Sr(PIr)2,-104.17519974,0.0,154,284.92601062761800,Sr3P6Ir6,0.3761000000000000,9.336427975873830,-6.945013316,-0.9064214546666670,3.7E-06,1.23333333333333E-06
mp-19219,Li3VO4,-100.35296132,0.0,31,177.7810505734810,Li6V2O8,4.055400000000000,2.5361338577586700,-6.2720600825,-2.502745246250000,0.0,0.0
mp-27322,Nb2Te3O11,-222.52676484,0.0,18,517.9291032839530,Nb4Te6O22,2.673,4.774582505872940,-6.95396140125,-2.1725186559375,5.99E-05,2.995E-05
mp-546285,NbI3O,-49.64822355,0.0,5,350.8401886374550,Nb2I6O2,0.8325,4.634770012578030,-4.964822355,-1.405361577,0.0008803,0.00044015
mp-567394,Ga(MoSe2)4,-81.9794628,0.055303425109890700,160,273.27701099753900,Ga1Mo4Se8,0.20660000000000100,6.593879040725770,-6.306112523076920,-0.8751925258653840,1.0003663,1.0003663
mp-752461,Mn6O5F7,-120.02742389,0.06105325895833240,1,215.90207511197100,Mn6O5F7,0.1452,4.173335981373080,-6.66819021611111,-2.422898574449230,25.0037924,25.0037924
mp-1219553,RbBH4,-23.56051279,0.0,216,88.265861326438,Rb1B1H4,6.212400000000000,1.8871350844976300,-3.926752131666670,-0.5076137944444450,0.0,0.0
mp-13949,Cd(GaTe2)2,-22.21449512,0.0,82,236.35982304214400,Cd1Ga2Te4,1.4600000000000000,5.355214397260850,-3.1734993028571400,-0.6214585135714280,0.0008277,0.0008277
mp-16839,Na3WN3,-180.56364675,0.0,9,441.3065176535610,Na12W4N12,1.7694000000000000,4.437512070331090,-6.448701669642860,-0.6126749374507390,0.0008472,0.0002118
mp-17885,Ba2Ge2Te5,-145.89358223,0.0,33,1288.2394808869800,Ba8Ge8Te20,0.7732999999999990,5.454702368459810,-4.052599506388890,-1.0869881708333300,0.0040846,0.00102115
mp-20025,Mn(GaS2)2,-36.41038374,0.0,82,154.85919029959800,Mn1Ga2S4,1.1954000000000000,3.4596786945084600,-5.201483391428570,-0.9511967050615770,5.0000374,5.0000374
mp-20782,LiInTe2,-26.91818123,0.0,122,272.9414416020530,Li2In2Te4,1.7492000000000000,4.586735838518130,-3.36477265375,-0.8389705395833330,3.22E-05,1.61E-05
mp-20790,InPS4,-26.871858,0.0,82,154.3968558766310,In1P1S4,2.4231000000000000,2.9474282652179600,-4.478643,-0.6955120493055550,1.5E-06,1.5E-06
mp-29760,Ca10P6O25,-295.14477545,0.006978725203245160,174,550.1865559258900,Ca10P6O25,3.1486,2.9777180104888800,-7.198653059756100,-3.3191447923170700,3E-06,3E-06
mp-33880,Sr(GaTe2)2,-25.46013076,0.012087277142857300,97,238.39527361395200,Sr1Ga2Te4,0.46000000000000000,5.136809487558430,-3.6371615371428600,-0.9756059345238090,0.00055,0.00055
mp-37381,SmOF,-22.86794076,0.055045295000001100,216,43.1745359595704,Sm1O1F1,5.5421,7.1290603748695700,-7.62264692,-4.146304884166670,2.4E-05,2.4E-05
mp-4004,Ag5SbS4,-71.6100364,0.013321661999999600,36,444.7852730436630,Ag10Sb2S8,0.5987,5.893921663282090,-3.58050182,-0.2979437475833330,0.0031459,0.00157295
mp-4964,YSbPt,-20.30729028,0.0,216,72.72281931672040,Y1Sb1Pt1,0.1098000000000000,9.2648151367418,-6.76909676,-1.2776367388888900,0.0007022,0.0007022
mp-549720,NbI2O,-46.27957704,0.0,5,234.65871112440900,Nb2I4O2,0.8429000000000000,5.133429393733930,-5.78494713,-1.62187431125,0.0037518,0.0018759
mp-569525,NaLi5N2,-29.42225717,0.07578635135536290,6,102.16545025211500,Na1Li5N2,0.3468,1.3930517906493600,-3.67778214625,-0.32551596165229900,0.0006857,0.0006857
mp-676361,Li3ErCl6,-123.70582908,0.0,150,650.7305254430060,Li9Er3Cl18,5.21,3.0682933958270500,-4.123527636,-2.353356899,9E-07,3E-07
mp-760477,SmBO3,-82.63641143,0.060820527500000700,40,128.49753616135,Sm2B2O6,4.4306,5.406074521045040,-8.263641143,-3.427468958833330,0.0,0.0
mvc-3343,Zn3Sn2O7,-128.50469177,0.06358512541666970,36,278.8439297589320,Zn6Sn4O14,0.9879000000000000,6.498697580344150,-5.354362157083330,-1.8856036925000000,0.0041274,0.0020637
mp-10623,ThSbRh,-22.07060757,0.0,216,76.17758835597230,Th1Sb1Rh1,0.9939,9.955344079566680,-7.35686919,-1.0544800700000000,2.93E-05,2.93E-05
mp-19376,TiMnO3,-171.05526017,0.03631911250000290,161,222.94488788950300,Ti4Mn4O12,1.8012000000000000,4.492853495105260,-8.5527630085,-2.918284943752870,5.3E-06,1.325E-06
mp-30925,La(NO2)3,-69.50322178,0.14491393625000000,160,137.491745380771,La1N3O6,2.2955,3.3444898696379800,-6.950322178,-1.3991963870000000,0.0010686,0.0010686
mp-570213,LiMgBi,-8.61961331,0.0,216,80.33451243445140,Li1Mg1Bi1,0.35870000000000000,4.9655535328500700,-2.8732044366666700,-0.4067920277777780,0.0017195,0.0017195
mp-7173,ScSbPt,-20.04311577,0.0,216,65.31242879512500,Sc1Sb1Pt1,0.6597,9.198599703786930,-6.68103859,-1.2342459050000000,0.0004275,0.0004275
mp-753200,VOF,-86.09838176,0.03560031833333360,19,126.74958452641800,V4O4F4,1.9998000000000000,4.503543608546940,-7.174865146666670,-2.8100831325000000,7.9984809,1.999620225
mp-759601,MnOF,-81.11476081,0.028998964583332800,92,135.49148870285000,Mn4O4F4,1.3390000000000000,4.408896554422940,-6.759563400833330,-2.3580783126436800,16.0005511,4.000137775
mp-924129,ZrNiSn,-20.39001019,0.0,216,58.51138849215190,Zr1Ni1Sn1,0.5202,7.623580700345460,-6.796670063333330,-0.6842003416666670,7.5E-06,7.5E-06
mp-1024047,Na6ZnSe4,-68.67595944,0.0,186,551.9893593383190,Na12Zn2Se8,1.6598000000000000,3.1237244129669500,-3.12163452,-1.186130767153210,0.0016461,0.00082305
mp-1103228,BiIrSe,-67.90616461,0.0,198,260.69632048324700,Bi4Ir4Se4,0.6862000000000000,12.23369964469170,-5.658847050833330,-0.4080549816145850,0.0,0.0
mp-13703,Al4CO4,-129.21921308,0.0,36,228.86289514228,Al8C2O8,3.8285000000000000,2.669111976714930,-7.178845171111110,-2.595186500000000,0.0003025,0.00015125
mp-14092,AlAgTe2,-28.61004896,0.0,122,252.15498963566700,Al2Ag2Te4,1.6625000000000000,5.137259665559300,-3.57625612,-0.5710726966666660,0.0009441,0.00047205
mp-27573,NaSb3F10,-133.54193448,0.0,173,476.1752038096000,Na2Sb6F20,4.9964,4.033024062375740,-4.769354802857140,-2.754760610825120,0.002423,0.0012115
mp-5151,Cd4GeS6,-78.06767706,0.012166652878788500,9,544.6408546244370,Cd8Ge2S12,1.8442,4.357895985241940,-3.548530775454550,-0.8107774939772730,0.0008812,0.0004406
mp-752965,Li2V3O6,-157.43010718,0.04468708352270400,12,228.36219819028800,Li4V6O12,1.1142000000000000,3.820495964884830,-7.155913962727270,-2.470883965151520,4.4E-06,2.2E-06
mp-760415,Li3SbS4,-33.14790121,0.0052756637499999900,121,178.71691686473500,Li3Sb1S4,2.1224,2.5165238428746000,-4.14348765125,-1.0947914878125,4.11E-05,4.11E-05
mp-773512,Tm2WO6,-292.09914987,0.010584637499999200,19,467.0434864735330,Tm8W4O24,3.769,8.784817816276290,-8.113865274166670,-3.3319137912037000,0.0014319,0.000357975
mp-774155,Li2FeO3,-136.33002238,0.0,5,215.4836879545080,Li8Fe4O12,0.0807,3.6288091331455100,-5.680417599166670,-1.8779613994444400,1E-07,2.5E-08
mp-9732,BaNaP,-32.89720591,0.0,189,260.8908753293690,Ba3Na3P3,0.8556000000000000,3.6526237246905200,-3.655245101111110,-0.7703122244061300,0.0029472,0.0009824
mp-1095180,Ca2CdAs2,-37.78325124,0.0,36,259.3273361273270,Ca4Cd2As4,0.8530000000000000,4.38507966335758,-3.7783251240000000,-0.9278598580000000,4.2E-06,2.1E-06
mp-11520,YNiSb,-19.07442567,0.0,216,64.42243895882280,Y1Ni1Sb1,0.34859999999999900,6.942946662745370,-6.35814189,-0.9636055455555560,0.0001414,0.0001414
mp-12903,YAgTe2,-38.59632812,0.0,113,241.0363544909750,Y2Ag2Te4,1.3115000000000000,6.2274470479723800,-4.824541015,-1.1391337708333300,0.0004128,0.0002064
mp-37207,Li5GaO4,-100.11590827,0.19358006150000000,94,196.22027655151600,Li10Ga2O8,3.5894,2.8506461567657500,-5.0057954135000000,-2.0441399759166700,0.0003228,0.0001614
mp-37906,LiMgN,-13.75955559,0.0,216,31.471282759583800,Li1Mg1N1,2.2707000000000000,2.387696643736160,-4.58651853,-0.7582859161111110,0.0008012,0.0008012
mp-4360,NaCdF3,-39.92407992,0.0,161,151.19635286091900,Na2Cd2F6,3.482,4.2260416093617,-3.9924079920000000,-2.6736376008103400,0.0,0.0
mp-557614,Cd(PO3)2,-236.6298237,0.013578485694444500,19,497.0529933308440,Cd4P8O24,3.7247,3.612773037669710,-6.573050658333330,-2.4269105690740700,0.0017626,0.00044065
mp-560641,Ba12Cl5F19,-197.65973671,0.015708220138888500,189,765.757253406141,Ba12Cl5F19,5.980500000000000,4.74066924720197,-5.4905482419444400,-3.9144250852083300,4.07E-05,4.07E-05
mp-625175,H3ClO5,-162.7286538,0.004375108888884150,33,412.98643647554200,H12Cl4O20,5.4045,1.9054418170073400,-4.520240383333330,-0.8167381811111110,0.0010974,0.00027435
mp-756090,BaNa4O3,-67.0380919,0.09390749625000170,9,310.4269454814730,Ba2Na8O6,1.3924000000000000,2.966503916066660,-4.18988074375,-1.690886366400860,0.0018076,0.0009038
mp-756935,Li3SbO3,-148.33072426,0.009161866428571310,217,330.8075578578980,Li12Sb4O12,2.9032000000000000,3.82660577658809,-5.297525866428570,-2.063432601428570,0.0001926,4.815E-05
mp-13654,Y3Sb4Au3,-107.88096701,0.0,220,494.58367626632300,Y6Sb8Au6,0.5814000000000000,9.029234136038700,-5.3940483505,-0.8971420585000000,0.004343,0.0021715
mp-22386,InAgTe2,-26.03344784,0.0,122,280.93003124599300,In2Ag2Te4,0.06500000000000000,5.649440189569200,-3.25418098,-0.49747058166666600,4.86E-05,2.43E-05
mp-27272,Ca3PI3,-106.61039781,0.0,214,963.1636259313510,Ca12P4I12,2.1548,3.6682277556051000,-3.8075142075000000,-1.6839227801190500,0.0011128,0.0002782
mp-28264,RbH3O2,-56.81898897,0.0,36,145.0807424255660,Rb2H6O4,4.2764,2.7581751542758100,-4.7349157475,-1.4548100445833300,0.0002216,0.0001108
mp-34116,Tm2MgS4,-79.31924236,0.10044591071428500,122,277.3794411913900,Tm4Mg2S8,2.3789,5.871984239194750,-5.665660168571430,-2.081981545119050,9.15E-05,4.575E-05
mp-559724,Ta4S9Br8,-115.0829313,0.0,107,684.5853259267260,Ta4S9Br8,1.3014,4.006163098043030,-5.480139585714290,-1.2441575637202400,0.000875,0.000875
mp-626165,NaH9O5,-145.18763342,0.05230300400000050,1,283.50313673375100,Na2H18O10,3.8289,1.3126984737965100,-4.839587780666670,-1.295463465770120,0.0008255,0.00041275
mp-657176,YbBeF4,-137.86188547,0.15246209166666700,1,330.7953652949690,Yb4Be4F16,6.5464,5.181392101490410,-5.744245227916670,-3.8980890587500000,5.86E-05,1.465E-05
mp-675418,BH6N,-112.57524403,0.05111521020832740,1,202.58503671283800,B3H18N3,5.8884,0.7589865032313680,-4.690635167916670,-0.3142297971875000,0.0027259,0.0009086333333333330
mp-773044,LiCuO2,-40.46706879,0.02471069874999990,8,87.45998043349940,Li2Cu2O4,0.33430000000000000,3.8916467583971800,-5.05838359875,-1.425870712083330,0.0001636,8.18E-05
mp-1029422,NbZn2N3,-80.05452241,0.0,36,156.6209583477170,Nb2Zn4N6,1.9319000000000000,5.6349941339729500,-6.671210200833330,-0.5799973616666670,8.85E-05,4.425E-05
mp-11773,Nd3GaO6,-154.81429077,0.0,36,304.2478297803360,Nd6Ga2O12,3.6698,6.532450644887340,-7.740714538500000,-3.4508853702500000,0.00158,0.00079
mp-1190842,Rb6HgS4,-65.76386744,0.0,186,772.3074524429610,Rb12Hg2S8,1.5961,3.6192943435898400,-2.9892667018181800,-1.1055681320454500,0.0018264,0.0009132
mp-1212660,GaCuBr4,-35.46070041,0.0,112,382.2060157595530,Ga2Cu2Br8,1.9902,3.9352244819204900,-2.9550583675,-1.0318859904166700,0.0001948,9.74E-05
mp-22304,Cd(InSe2)2,-24.41428968,0.0,82,212.01569966171600,Cd1In2Se4,1.399,5.152670611899680,-3.4877556685714300,-0.8417695070535720,8.3E-05,8.3E-05
mp-27042,CrPO4,-89.94803597,0.11939688583333400,43,142.8370332750540,Cr2P2O8,1.5838,3.4171139875203900,-7.495669664166670,-2.4771373313888900,5.9999234,2.9999617
mp-28872,RbBrO3,-20.66514921,0.0,160,98.23046475762000,Rb1Br1O3,4.1801,3.6069178896250500,-4.133029842,-1.0529598460000000,0.0001307,0.0001307
mp-674341,Sc3TaO7,-200.83327164,0.18440166943181600,67,251.09035072942100,Sc6Ta2O14,2.6746000000000000,5.658501550073510,-9.128785074545460,-3.612247621818180,0.0004434,0.0002217
mp-676038,Ga5(PS)3,-49.4777529,0.007576829545456580,25,241.88490914103400,Ga5P3S3,1.3519,3.6915234228830100,-4.497977536363640,-0.6542741515340910,0.003914,0.003914
mp-753473,LiCoO2,-45.07176593,0.09324527124999980,186,73.73444592182090,Li2Co2O4,0.8956,4.408304144170690,-5.63397074125,-1.6586800733333300,2.3E-05,1.15E-05
mp-754496,Li5SbS,-95.82442061,0.05869824392857130,19,497.3247693285200,Li20Sb4S4,0.5487000000000000,2.5179637092983600,-3.4223007360714300,-0.9772913874702380,0.0002041,5.1025E-05
mp-7664,Na6ZnO4,-86.61438079,0.0,186,300.9065880134340,Na12Zn2O8,1.532,2.9506643761845700,-3.9370173086363600,-1.551677364028210,0.0001896,9.48E-05
mp-985293,Al(HO)3,-163.84918669,0.024784602142858600,19,189.08839788176700,Al4H12O12,5.8122,2.7400508511392400,-5.8517566675,-2.0365228132142900,0.0,0.0
mp-1078908,Ca2CdP2,-40.52944775,0.0,36,240.75452047496000,Ca4Cd2P4,1.2927000000000000,3.5108899246031800,-4.052944775,-0.9008058683333340,2.17E-05,1.085E-05
mp-20694,K2Pb2O3,-66.8015584,0.0,199,319.83440627110200,K4Pb4O6,1.9853,5.613397226813130,-4.771539885714290,-1.5674005930000000,0.0,0.0
mp-27336,CsCuBr3,-58.25412827,0.0,20,665.2636078252480,Cs4Cu4Br12,0.3765,4.354763692369660,-2.9127064135,-1.2520248695862100,0.003484,0.000871
mp-27608,Be4TeO7,-78.7972216,0.0,216,112.06532115425100,Be4Te1O7,1.4809,4.084390269211810,-6.566435133333330,-2.572461847916670,0.0002195,0.0002195
mp-28768,Na4SnSe4,-63.12016436,0.0,114,504.6367046708530,Na8Sn2Se8,1.4647,3.465022989350420,-3.5066757977777800,-1.129418137842430,0.0011087,0.00055435
mp-30927,CsAs4F13,-84.68581551,0.0,82,328.4164683635510,Cs1As4F13,5.2957,3.4360467820379000,-4.704767528333330,-2.572817385579500,0.0001487,0.0001487
mp-3595,ZnSiAs2,-33.58097803,0.0,122,178.36813063034200,Zn2Si2As4,0.8902000000000000,4.530761810404420,-4.19762225375,-0.19679864374999900,0.0,0.0
mp-36582,NaHS,-10.87327898,0.0018551933333328400,160,52.59360609646570,Na1H1S1,3.1546000000000000,1.77006913669558,-3.6244263266666700,-0.8415259248922410,2.07E-05,2.07E-05
mp-5012,Li2SiO3,-78.64683259,0.0,36,121.5364314590410,Li4Si2O6,5.1122000000000000,2.458383181249840,-6.553902715833330,-2.882895587777780,0.0,0.0
mp-540284,CuPO4,-37.58615053,0.04117386625000120,82,77.14297513411930,Cu1P1O4,0.13990000000000000,3.4121612742798400,-6.264358421666670,-1.8382995555555500,0.0007213,0.0007213
mp-675634,KBi2F7,-46.9459687,0.069186466050005,1,165.39683092877700,K1Bi2F7,4.7189,5.923920191271880,-4.69459687,-2.7909148360500000,0.0015695,0.0015695
mp-7575,LiZnN,-12.33664672,0.0,216,30.05963016743480,Li1Zn1N1,0.5187000000000000,4.770473662314310,-4.112215573333330,-0.3974951061111110,0.0,0.0
mp-774557,Er2TeO6,-260.74232875,0.0,19,477.35904173349000,Er8Te4O24,3.0130000000000000,7.765817205150470,-7.2428424652777800,-3.037897511944450,0.0038205,0.000955125
mp-1016108,TiZnN2,-116.88717514,0.0,33,196.896776603425,Ti4Zn4N8,2.3663000000000000,4.766285613075760,-7.30544844625,-1.0288920770833300,0.0002635,6.5875E-05
mp-17161,K6CdO4,-78.99561311,0.0,186,455.21409623991100,K12Cd2O8,1.5868000000000000,2.998496334570480,-3.5907096868181800,-1.351698099363640,0.0003821,0.00019105
mp-18385,Lu2Si2O7,-361.88187794,0.019656807727273000,92,520.4361758688680,Lu8Si8O28,5.583500000000000,6.612350629933820,-8.224588135,-3.7046557609090900,0.0,0.0
mp-20496,Ga2PbO4,-82.60563099,0.0,40,220.7423823892610,Ga4Pb2O8,3.5212,6.1781496862420200,-5.900402213571430,-2.070018908571430,1E-06,5E-07
mp-22576,Mn(SbO3)2,-354.77766369,0.0,150,666.6846068178480,Mn6Sb12O36,0.5226000000000000,5.894904510031520,-6.569956735,-1.9790918681034500,3.4E-06,5.66666666666667E-07
mp-29047,Tl3VO4,-44.90907296,0.0,44,169.27572494420500,Tl3V1O4,2.7174,7.142313104021460,-5.61363412,-1.6741741787500000,6.8E-06,6.8E-06
mp-29163,Ag2TeS3,-42.75380727,0.0,9,294.5005515056210,Ag4Te2S6,1.3065000000000000,4.95658875316884,-3.5628172725000000,-0.27802351628472300,0.0007715,0.00038575
mp-37091,Sr(AlTe2)2,-27.59602489,0.0,97,239.439387993077,Sr1Al2Te4,1.9336000000000000,4.521575917509390,-3.94228927,-1.075739436666670,1.83E-05,1.83E-05
mp-5540,SrB4O7,-188.87894842,0.0068223917939747000,31,207.49470679058300,Sr2B8O14,7.2966,3.887117814659980,-7.869956184166670,-3.017140553194440,0.0004281,0.00021405
mp-5707,CsAsF4,-55.39620988,0.0,4,268.74020762263900,Cs2As2F8,4.6885000000000000,3.507441672475870,-4.616350823333330,-2.724278048821840,4.78E-05,2.39E-05
mp-5928,Al2CdS4,-31.73316239,0.0,82,163.08297108326200,Al2Cd1S4,2.7413000000000000,3.0000152210401600,-4.533308912857140,-1.255045928928570,2.61E-05,2.61E-05
mp-625151,H7ClO3,-102.39499303,0.0,9,221.59730313025200,H14Cl2O6,5.2273,1.3564248468658800,-4.654317865000000,-1.220999502272730,0.0001422,7.11E-05
mp-673682,Tb2YbS4,-84.34035904,0.0069370246428581700,122,291.97007140702600,Tb4Yb2S8,2.1164,7.042666534334350,-6.02431136,-2.404005653214290,0.0003894,0.0001947
mp-752415,NbO2F,-64.99870076,0.06153223749999980,38,127.62088055079300,Nb2O4F2,1.7144,3.744802898961660,-8.124837595,-3.1066610906250000,4.64E-05,2.32E-05
mp-752973,LiMnF4,-64.94846555,0.056711127500000700,9,138.92926374497000,Li2Mn2F8,2.7851,3.295820165190540,-5.412372129166670,-2.878896457710730,7.9999402,3.9999701
mp-753816,Na6MgO4,-91.02648751,0.010850669545454200,186,301.3976323272030,Na12Mg2O8,2.0991,2.492935158189090,-4.137567614090910,-1.7212698113009400,0.0002575,0.00012875
mp-754530,V4O3F5,-83.45855545,0.05986300791666640,44,143.91495726346200,V4O3F5,0.5908000000000000,4.000989571919760,-6.954879620833330,-2.824387776458330,8.9999824,8.9999824
mp-759764,W(OF)2,-64.72699874,0.00022445800000348000,26,198.40679187899400,W2O4F4,1.7426000000000000,4.2488862092823000,-6.472699874,-2.484498591000000,0.0009352,0.0004676