material_id,pretty_formula,final_energy,e_above_hull,spacegroup.number,volume,full_formula,band_gap,density,final_energy_per_atom,formation_energy_per_atom,magnetism.total_magnetization,total_magnetization
mp-753217,Fe4O3F5,-70.72198584,0.08590489416665740,44,142.15592354108000,Fe4O3F5,1.5240000000000000,4.27961101691884,-5.8934988200000000,-2.1529728489583300,19.0000274,19.0000274
mp-754280,Li5CoO4,-102.53231985,0.016990508500000200,41,196.37239246781900,Li10Co2O8,1.5092,2.6659592277967000,-5.1266159925,-1.9207383776666700,8.0005228,4.0002614
mp-755898,Er3TaO7,-196.15565348,0.00626421090908913,20,291.9631475109310,Er6Ta2O14,3.4152000000000000,9.03994046800383,-8.916166067272730,-3.8809241495454500,0.0027697,0.00138485
mp-760313,VOF3,-58.17112244,0.09562531950000080,5,141.1417368699000,V2O2F6,2.2058,2.9162281309166600,-5.817112244,-2.6184514485,9.2E-06,4.6E-06
mp-765508,V3(O2F)2,-66.03269755,0.06898339611111300,1,108.65862528733600,V3O4F2,1.2464,3.894184634367970,-7.336966394444440,-2.6597974872222200,4.9999998,4.9999998
mp-766325,BaCaI4,-20.02894012,0.05183884625000040,8,304.9582686294600,Ba1Ca1I4,3.27,3.730042339455220,-3.3381566866666700,-1.920719825,0.00042,0.00042
mp-989524,LaWN3,-95.8649992,0.0,161,131.5044547095120,La2W2N6,1.2941000000000000,9.211968985744260,-9.58649992,-1.2223762500000000,0.0001328,6.64E-05
mp-1019560,Ca2B2O5,-271.43920858,0.0,19,445.97787699929800,Ca8B8O20,4.7106,2.707259748955570,-7.539978016111110,-3.242779313148150,0.0,0.0
mp-1029262,VZn2N3,-78.00928793,0.0,36,142.41504527978000,V2Zn4N6,1.3256000000000000,5.218476283571130,-6.500773994166670,-0.579127649999999,2.08E-05,1.04E-05
mp-11321,Y3TaO7,-206.61767761,0.0,20,301.80654689879500,Y6Ta2O14,3.499,6.158510118655870,-9.391712618636360,-3.8386291636363600,0.0020923,0.00104615
mp-1220004,PIrS,-82.34905627,0.0,198,184.5642516392290,P4Ir4S4,1.8622000000000000,9.186224548062180,-6.862421355833330,-0.9006937579861120,0.0,0.0
mp-19052,K3VO4,-45.87581081,0.021533678437500600,121,168.41106478946100,K3V1O4,3.6402,2.28983546939083,-5.73447635125,-2.264607984875,2.81E-05,2.81E-05
mp-28475,H2Pb3O4,-190.4604521,0.0012747727430531000,114,653.9816608542160,H8Pb12O16,2.8810000000000000,6.98373740186765,-5.290568113888890,-1.4053195227777800,0.0,0.0
mp-29365,Li5BiO5,-56.17692,0.0,8,121.77903034390000,Li5Bi1O5,1.3650000000000000,4.413627443517980,-5.106992727272730,-1.9488605756060600,0.002805,0.002805
mp-36526,AcOF,-22.31223549,0.0,216,53.35030314961820,Ac1O1F1,4.2844,8.1547350603966,-7.437411830000000,-4.160206836666670,7.73E-05,7.73E-05
mp-37405,Al5CuSe8,-61.41812178,0.019969482499991600,216,299.9155101770730,Al5Cu1Se8,0.8772000000000000,4.596192530734970,-4.387008698571430,-1.0285531527678600,0.0010966,0.0010966
mp-5368,Li2GeF6,-132.8892627,0.0004517016666669700,150,298.08567364964100,Li6Ge3F18,6.0618,3.3509698873830100,-4.921824544444440,-3.0176303896296300,4.75E-05,1.58333333333333E-05
mp-568661,Cd(InSe2)2,-24.39570455,0.002655018571428250,121,210.87415627693700,Cd1In2Se4,1.2261000000000000,5.180564011237030,-3.48510065,-0.8391144884821430,0.0005687,0.0005687
mp-616185,Rb2ZnCl4,-88.90764925,0.006374518809523440,33,899.8021246593440,Rb8Zn4Cl16,4.4708000000000000,2.79147510495316,-3.1752731875,-2.0097077025000000,0.0026363,0.000659075
mp-675620,Nd2PbS4,-81.86011239,0.03247991250000220,122,326.96101157766600,Nd4Pb2S8,2.1251000000000000,6.337657094779080,-5.847150885,-1.8781890339285700,0.0005978,0.0002989
mp-754014,Mn4OF8,-161.76811736,0.07587672894230920,9,387.5132317382540,Mn8O2F16,0.7311,3.323011353431750,-6.2218506676923100,-2.6962465205172400,35.9994549,17.99972745
mp-769365,ZnSeO4,-59.28654433,0.049157641666671000,31,148.02565690797100,Zn2Se2O8,2.1122,4.6748771355188400,-4.940545360833330,-1.3072955095572900,0.0001986,9.93E-05
mp-10614,SrLiP,-11.72110219,0.0746842533333334,187,68.04032151257380,Sr1Li1P1,0.9518,3.063703578749420,-3.907034063333330,-0.903127787777778,0.0003734,0.0003734
mp-1102536,AlCuBr4,-39.0757152,0.0,112,359.92204823112500,Al2Cu2Br8,2.17,3.784482623979300,-3.2563096,-1.2135572550000000,0.0006863,0.00034315
mp-15701,MgSiN2,-56.55400219,0.029344369375000000,122,86.51419902037110,Mg2Si2N4,3.4803000000000000,3.0865180182865000,-7.06925027375,-1.32510429375,0.0005224,0.0002612
mp-17095,CsCuSe4,-86.09909085,0.0,19,750.3429747491470,Cs4Cu4Se16,1.2331000000000000,4.534886034747410,-3.58746211875,-0.7390862933010060,0.0015431,0.000385775
mp-29909,Ba4I6O,-87.59748496,0.0,186,915.4523644756370,Ba8I12O2,3.9881000000000000,4.813126469047880,-3.981703861818180,-2.2719838604545500,5.69E-05,2.845E-05
mp-5020,BaTiO3,-40.05853491,0.0,160,67.97032701923260,Ba1Ti1O3,2.6212,5.696967707935740,-8.011706982,-3.4922378096666700,1.61E-05,1.61E-05
mp-625051,NaHO,-13.48893709,0.0475719950000002,160,31.959479186789000,Na1H1O1,3.2972,2.07815534547146,-4.496312363333330,-1.504241582183910,0.0004363,0.0004363
mp-625359,NdHO2,-56.48569298,0.0,4,101.30389220135200,Nd2H2O4,4.1681,5.8108025443014100,-7.0607116225,-2.89001380625,1.2E-06,6E-07
mp-625943,Co(HO)2,-25.95101069,0.24806643800000300,156,45.147240082469900,Co1H2O2,2.2891000000000000,3.4186713808643900,-5.190202138,-1.0346637590000000,3.0001623,3.0001623
mp-754369,Na4MgO3,-67.70056535,0.07009702062499910,9,249.18038293763800,Na8Mg2O6,1.4981,2.1892889408930700,-4.231285334375,-1.7721273045258600,0.0010622,0.0005311
mp-762996,FeOF,-144.33187399,0.08210464763889030,40,278.3884418365070,Fe8O8F8,1.6981,4.334893291917520,-6.013828082916670,-2.039011942083330,40.0034202,5.000427525
mp-8411,Na2AgAs,-23.32913163,0.0,63,188.4285162821730,Na4Ag2As2,0.8288,4.032090592384100,-2.91614145375,-0.3819602049425290,0.0004298,0.0002149
mp-863076,NbBiO4,-45.74955515,0.0656281454166674,5,98.22799243919220,Nb1Bi1O4,2.4174,6.185256277377670,-7.6249258583333300,-2.4523952966666700,1E-07,1E-07
mp-866663,K3TaF8,-135.58802475,0.0006413245833325480,186,391.9807147503870,K6Ta2F16,3.8500000000000000,3.814598448959020,-5.64950103125,-3.4174338470000000,0.0016918,0.0008459
mp-1009088,BeGeAs2,-36.75634731,0.0,122,162.54005772086800,Be2Ge2As4,0.6601000000000000,4.729998634658270,-4.59454341375,-0.17437403125000000,0.0004421,0.00022105
mp-10161,KZnSb,-7.67033591,0.00983951666666627,187,98.43959262236440,K1Zn1Sb1,0.34820000000000000,3.816814770713930,-2.556778636666670,-0.45439737100000000,0.0002299,0.0002299
mp-1019508,AlGa3N4,-51.75101671,0.01131526374999940,215,91.54816960876490,Al1Ga3N4,2.8191000000000000,5.2996350139376800,-6.46887708875,-0.8773966390625000,0.0003396,0.0003396
mp-1094098,NaGaTe2,-25.99313318,0.0,122,280.38421462358600,Na2Ga2Te4,1.8646,4.1209363083012500,-3.2491416475,-0.8008358535129310,0.0001119,5.595E-05
mp-1213706,Cs2Pb2O3,-65.37388048,0.0,199,401.04179664769200,Cs4Pb4O6,2.0952,6.030392221566630,-4.669562891428570,-1.526851191551720,0.0010797,0.00053985
mp-27149,CsCrF4,-98.81377721,2.378055541666680,189,332.4315794640340,Cs3Cr3F12,2.8606,3.909616053654100,-5.489654289444440,-3.098426670766280,9.0034229,3.0011409666666700
mp-27852,Hg3(TeCl)2,-27.42369343,0.0,199,450.2469984700140,Hg6Te4Cl4,1.9227000000000000,6.844129343210510,-1.958835245,-0.6984472057142860,0.0007212,0.0003606
mp-34376,Tb2CdS4,-75.34983357,0.09967884678571440,122,300.0626104460120,Tb4Cd2S8,1.8691000000000000,6.1816905546165400,-5.382130969285710,-1.8499279082142900,0.0011565,0.00057825
mp-504535,InHO2,-43.20057961,0.0027665416666673400,31,83.03657738982230,In2H2O4,1.7764000000000000,5.912304275924420,-5.40007245125,-1.7334895050000000,0.0002545,0.00012725
mp-675748,Zn2GeS4,-27.8255397,0.012141351870749200,121,152.73465574680600,Zn2Ge1S4,2.3269,3.606455230485160,-3.9750771,-0.878460736785714,2.65E-05,2.65E-05
mp-753056,HoBO3,-82.79811009,0.08923376399999940,40,118.51798572341900,Ho2B2O6,4.5469,6.269566790805140,-8.279811009,-3.470874277833330,0.0,0.0
mp-759724,Li3MnF7,-54.90926267,0.05463704393939400,160,146.79650952454200,Li3Mn1F7,1.5604000000000000,2.3613457233281000,-4.991751151818180,-2.8674660004937300,3.0001801,3.0001801
mp-8393,Tl3SbS3,-25.99277024,0.0,160,212.02963335464500,Tl3Sb1S3,1.7082000000000000,6.508911669834060,-3.713252891428570,-0.553641422767857,3.9E-06,3.9E-06
mp-8612,Sb2TeSe2,-19.51810779,0.0,160,152.58790467140100,Sb2Te1Se2,0.4808999999999990,5.757281939783520,-3.9036215580000000,-0.49819628493749900,9.55E-05,9.55E-05
mp-9007,Na6P4W,-94.06440028,0.0,186,523.8869094157860,Na12P8W2,1.3043,2.8252606285607200,-4.275654558181820,-0.40779198933124400,0.0013433,0.00067165
mvc-16450,CaSnF4,-31.93612221,0.04313070458333270,123,92.69790807626470,Ca1Sn1F4,3.6253000000000000,4.205747985736690,-5.322687035,-3.3538391008333300,6.01E-05,6.01E-05
mp-1023954,MoWS4,-45.39137734,0.0021300466666671600,156,196.94526918553000,Mo1W1S4,1.3369,3.440378961817910,-7.565229556666670,-1.1756347287500000,0.0,0.0
mp-12403,LiBF4,-101.73455156,0.0,152,242.71060210894100,Li3B3F12,8.2555,1.9241217856674200,-5.651919531111110,-3.2542144465277800,0.000756,0.000252
mp-21892,Al2PbO4,-97.00825576,0.0,40,206.0975769145040,Al4Pb2O8,4.0403,5.239673512869070,-6.929161125714290,-2.8937835900000000,0.0002816,0.0001408
mp-27851,Hg3(SeCl)2,-29.22020951,0.0,199,411.77587602191200,Hg6Se4Cl4,1.776,6.698969934257640,-2.0871578221428600,-0.7403096263839290,0.0011384,0.0005692
mp-29820,Ca3(AlN2)2,-456.31425337,0.0,19,1002.2165789292000,Ca24Al16N32,2.1935000000000000,3.051601820941170,-6.337697963472220,-1.2921500745833300,0.0019687,0.0002460875
mp-33775,La5AgSe8,-80.85133043,0.01626138810640130,82,374.25031559073400,La5Ag1Se8,1.4900000000000000,6.362956492026110,-5.775095030714290,-2.0819605057440500,0.0583966,0.0583966
mp-35308,CuCN,-20.587218,0.2380880983333330,160,52.74651270734920,Cu1C1N1,2.6997,2.819589713213410,-6.862406,0.2380880983333330,9.05E-05,9.05E-05
mp-35746,Sr(YS2)2,-91.11985417,0.07200678571428570,122,311.49908345564100,Sr2Y4S8,2.1883,4.197382803145630,-6.508561012142860,-2.3433845625,0.0013423,0.00067115
mp-37923,Sm5AgS8,-85.10937937,0.022068262589284500,82,306.32561829604,Sm5Ag1S8,1.6500000000000000,6.050666353300870,-6.0792413835714300,-2.115449554047620,0.0005904,0.0005904
mp-556489,Ta2SnO6,-160.31877639,0.0,9,241.17186284728500,Ta4Sn2O12,2.3734000000000000,7.940150241923000,-8.906598688333330,-2.9853883388888900,0.001431,0.0007155
mp-754929,Ga3NO3,-168.79448551,0.043237387499998700,174,374.6005517473950,Ga12N4O12,1.0047000000000000,4.8082668612397600,-6.028374482500000,-1.765136481428570,0.0036827,0.000920675
mp-755246,Ni(IO3)2,-161.78275427,0.0,4,546.4616491446300,Ni4I8O24,3.0378,4.965238585277890,-4.493965396388890,-0.9547511808333330,4E-07,1E-07
mp-999052,Ti2MnAl,-29.6986705,0.07675921665000020,216,60.96457800321940,Ti2Mn1Al1,0.056700000000000200,4.8388871956714100,-7.424667625,-0.2500238361494260,0.000174,0.000174
mp-3338,NaGaO2,-87.03389293,0.0,33,218.98406214429100,Na4Ga4O8,2.86,3.782712418769170,-5.439618308125,-2.2214824766379300,0.0007104,0.0001776
mp-34011,Ca(HoS2)2,-84.23702161,0.04074667035714350,122,291.2860421340280,Ca2Ho4S8,2.3683000000000000,5.680178140951480,-6.016930115,-2.3448991025000000,0.0005997,0.00029985
mp-35220,PHN2,-53.91699732,0.001930550624999580,24,81.44267924989720,P2H2N4,4.8474,2.4464865741945100,-6.739624665,-0.5503700645833330,0.0018491,0.00092455
mp-4674,BNF8,-176.63769952,0.0,113,527.4517229610220,B4N4F32,3.0599,2.2264899200854600,-4.415942488000000,-1.7547706444166700,0.0021739,0.000543475
mp-4731,K2UF6,-54.65067585,0.03409441777777730,189,144.0725745914480,K2U1F6,0.2852000000000000,4.958545091153130,-6.072297316666670,-3.604621571222220,1.9995308,1.9995308
mp-550070,NbBr2O,-48.93505098,0.0,5,200.44785868792100,Nb2Br4O2,0.9306000000000000,4.452127673945020,-6.1168813725,-1.9748484150000000,0.0046595,0.00232975
mp-5513,Tl3VS4,-37.58138596,0.0,217,226.02188571427000,Tl3V1S4,2.0454,5.821252442068850,-4.697673245,-0.8594688728125000,0.0002334,0.0002334
mp-554769,MoSBr,-75.61822496,0.016333750000000300,216,256.1746488014800,Mo4S4Br4,0.8950999999999990,5.39071322494961,-6.301518746666670,-1.1075101502083300,0.0003502,8.755E-05
mp-560008,PNF2,-49.04349632,0.0,36,125.5171317503370,P2N2F4,5.6193,2.1955089938164300,-6.13043704,-2.058498198333330,3.83E-05,1.915E-05
mp-568400,Sc(AlC)3,-95.35010058,0.00040784071428490200,186,164.5304845267670,Sc2Al6C6,0.11960000000000000,3.268639916700070,-6.81072147,-0.3465016564285710,0.0039109,0.00195545
mp-618177,K2ZnCl4,-89.24908263,0.014619401190474300,33,848.8202896444160,K8Zn4Cl16,4.4093,2.2334389546402400,-3.1874672367857100,-1.9847975019285700,0.0025474,0.00063685
mp-674981,Ag3SI,-14.55851855,0.06533613400000030,6,123.75654559214700,Ag3S1I1,0.2886000000000000,6.475076465078780,-2.9117037100000000,-0.25647761162500000,0.0002521,0.0002521
mp-675682,Al11NO15,-200.78495504,0.0421799370370346,1,254.9926321178560,Al11N1O15,4.052200000000000,3.58683301640987,-7.436479816296300,-3.2479152188888900,0.0001623,0.0001623
mp-677526,Rb2SeO4,-70.0356417,0.014419613571428500,9,300.9293775943950,Rb4Se2O8,3.6086,3.4641478044235600,-5.002545835714290,-1.7881424581919600,0.0001002,5.01E-05
mp-754202,CsClO3,-42.5547155,0.0709065526249999,31,211.65529271955900,Cs2Cl2O6,5.4663000000000000,3.394847047597860,-4.25547155,-1.150107140586210,0.0001129,5.645E-05
mp-756005,Li2CrO3,-74.72399369,0.07177707625000010,36,134.37695514974500,Li4Cr2O6,1.4086000000000000,2.8144118118934800,-6.226999474166670,-2.184536771111110,4.0000141,2.00000705
mp-867745,Ge2N2O,-66.63835365,0.046406009999997400,36,138.72871951898500,Ge4N4O2,2.5262,4.531550359809740,-6.663835365,-0.7722340520000000,0.0003558,0.0001779
mp-24118,H10SO8,-197.41957259,0.0,114,364.9855018831380,H20S2O16,5.5158000000000000,1.5481352060178900,-5.195251910263160,-1.42428357569079,0.0006048,0.0003024
mp-27167,Sn2IF3,-52.39624911,0.0,20,288.73726349130500,Sn4I2F6,2.4336,4.846051244260440,-4.3663540925,-2.11425522125,0.0023863,0.00119315
mp-27920,Li8CoO6,-150.84363048,0.00849530633333373,185,291.34142061000800,Li16Co2O12,1.0764,2.3990619502606700,-5.028121016,-1.940956565444450,9.9993469,4.99967345
mp-29946,IO2F,-64.15776516,0.0,19,259.075135405718,I4O8F4,2.9217000000000000,4.561034819485590,-4.0098603225,-1.1360069243750000,0.0019321,0.000483025
mp-555021,TePbO3,-109.5187949,0.002718220500000260,76,359.1264305293920,Te4Pb4O12,2.7778000000000000,7.079973086772140,-5.475939745,-1.548173542,0.0033572,0.0008393
mp-760492,Na4PtO4,-41.20862214,0.059528482777777100,12,123.78370876723100,Na4Pt1O4,0.9312,4.709155704969390,-4.578735793333330,-1.4226410262452100,0.0002553,0.0002553
mp-7684,Tl3AsSe3,-24.44044941,0.0,160,220.32014184352100,Tl3As1Se3,1.1920000000000000,6.971301341804370,-3.4914927728571400,-0.5173810188616070,6.7E-06,6.7E-06
mp-7801,CaGeN2,-51.6609082,0.0,122,108.42725586082100,Ca2Ge2N4,3.0019,4.310539554690540,-6.457613525,-0.8127091287500000,0.0,0.0
mp-998712,TlGeF3,-22.73916442,0.027987878999999400,1,105.97098872632000,Tl1Ge1F3,3.2618,5.233987064051520,-4.547832884,-2.281011303166670,0.0004676,0.0004676
mp-14090,TlCuSe2,-28.78568276,0.0,122,212.85967719127000,Tl2Cu2Se4,0.009799999999999810,6.6441837032276200,-3.598210345,-0.47079215200520800,0.0004952,0.0002476
mp-20282,CsPbF3,-45.76854985,0.0,161,232.14681541567200,Cs2Pb2F6,3.67,5.6808977595730300,-4.576854985,-2.785557716086210,0.0,0.0
mp-3247,Cs2TiS3,-60.68298949,0.0,63,385.57703303774800,Cs4Ti2S6,1.2891,3.530344967585510,-5.056915790833330,-1.6258080639284000,0.0015052,0.0007526
mp-36775,SrAl2O4,-302.13851962,0.011835552261908700,178,592.1876060588450,Sr6Al12O24,3.9619000000000000,3.4587830849816400,-7.193774276666670,-3.4474186861904800,9.53E-05,1.58833333333333E-05
mp-510347,In5S5Br,-84.21747937,0.0,31,559.8090445276830,In10S10Br2,1.2514000000000000,4.830963434381520,-3.8280672440909100,-0.8254671643750010,0.0033767,0.00168835
mp-561055,RbB3O5,-270.29376571,0.0009588383024592420,19,476.89716168969200,Rb4B12O20,5.3578,2.7562925887826400,-7.508160158611110,-2.8055474463888900,8.51E-05,2.1275E-05
mp-754659,Zr3N2O3,-154.24304838,0.06207933062500000,36,236.66540150196200,Zr6N4O6,2.7114000000000000,4.90703985512232,-9.64019052375,-2.8430686793750000,0.0004981,0.00024905
mp-13542,ZrGeTe4,-57.58559052,0.0003592441666677720,36,384.0222156606070,Zr2Ge2Te8,0.42130000000000000,5.83112990625263,-4.798799210000000,-0.7894771758333330,0.0022283,0.00111415
mp-27936,Na2SbF5,-148.28886612,0.0,19,522.7546939138040,Na8Sb4F20,4.896000000000000,3.3382847859984300,-4.63402706625,-2.881346233200430,0.0025274,0.00063185
mp-31455,VSbRu,-23.19038339,0.08860779833333420,216,55.21366665265650,V1Sb1Ru1,0.2741000000000000,8.23361857004672,-7.730127796666670,-0.23436214166666700,2.13E-05,2.13E-05
mp-34293,CsTaN2,-66.13262594,0.0,122,176.04061701148700,Cs2Ta2N4,2.2255,6.449455512346640,-8.2665782425,-1.0905357794827600,0.0001848,9.24E-05
mp-36100,Ca(SmS2)2,-85.02794183,0.014135358214288000,122,307.25804331321700,Ca2Sm4S8,2.084,5.069934867138810,-6.073424416428570,-2.362485613928570,0.0008164,0.0004082
mp-4081,TaCu3Se4,-42.25558804,0.0,215,186.37577334228200,Ta1Cu3Se4,1.7530000000000000,6.124709819636830,-5.281948505,-0.750568061171875,0.005378,0.005378
mp-557373,Cu2WS4,-40.89058341,0.006088470952382080,121,158.06681265928700,Cu2W1S4,1.6795,4.6138431051316600,-5.841511915714290,-0.7428920189285710,2.72E-05,2.72E-05
mp-557480,Te2SO7,-113.06467641,0.013964283500000000,31,305.4842319029210,Te4S2O14,2.8813000000000000,4.3405720290837,-5.653233820500000,-1.6785559443125000,0.0023756,0.0011878
mp-561412,CaCO3,-112.2636022,0.007197419333328630,5,191.62792800071700,Ca3C3O9,4.9963,2.601889128148360,-7.484240146666670,-2.6811874276666700,0.0002791,9.30333333333333E-05
mp-563025,Na6PbO5,-51.38851168,0.0337618162499993,107,184.53589677049000,Na6Pb1O5,1.0646,3.8255662491384600,-4.282375973333330,-1.5363256520258600,7.39E-05,7.39E-05
mp-626750,SrH4O3,-84.10644483,0.05197853906249780,1,168.88357934994000,Sr2H8O6,4.3998,2.7462020300816200,-5.256652801875,-1.7512427208333300,0.0002109,0.00010545
mp-676650,Li6Br3N,-35.3697993,0.04055237287500410,8,182.84997000901700,Li6Br3N1,2.0965,2.6823336269642400,-3.5369799300000000,-1.2631968497500000,0.0001754,0.0001754
mp-685969,Ag8GeTe6,-46.74045469,0.021838037833331800,1,412.4035916652160,Ag8Ge1Te6,0.0383,6.849807337833670,-3.1160303126666700,-0.20861154855555600,0.0001713,0.0001713
mp-753030,VOF3,-117.84677291,0.02039891799999970,19,309.7153173231090,V4O4F12,3.3637,2.6579344351705900,-5.8923386455,-2.693677850000000,0.0,0.0
mp-774357,Na6CoO4,-183.2066767,0.07093484909090810,217,624.1006394014930,Na24Co4O16,1.0507000000000000,2.7763717603653100,-4.163788106818180,-1.3956686908464000,12.0365523,3.009138075
mp-9295,TaCu3Te4,-38.84585638,0.0,215,214.6684057425080,Ta1Cu3Te4,1.58,6.8224851480301800,-4.8557320475,-0.4756568775000010,0.0007711,0.0007711
mp-28473,CClF3,-47.4822885,0.011826156312499900,36,180.84828787987200,C2Cl2F6,6.7176,1.918271964625470,-4.74822885,-1.7862779975000000,0.0,0.0
mp-4899,GaAgTe2,-26.61469966,0.0,122,253.89963602456300,Ga2Ag2Te4,0.1926000000000000,5.66102974020149,-3.3268374575,-0.5010239860416670,0.0008666,0.0004333
mp-5114,K6HgS4,-68.29845249,0.0,186,688.8302154737360,K12Hg2S8,1.7153,2.716529497573890,-3.1044751131818200,-1.149941157318180,0.001642,0.000821
mp-540997,FeTeCl7,-61.32739615,0.0,1,587.2986346710080,Fe2Te2Cl14,1.2736,2.4407181881875600,-3.4070775638888900,-1.156514675,10.001265,5.0006325
mp-675511,Sm2PbS4,-81.58567655,0.04233147821428760,122,320.5837438031210,Sm4Pb2S8,2.0712,6.590488531061350,-5.827548325,-1.8727456382142900,0.000966,0.000483
mp-703260,PbWO4,-82.55404007,0.05407425666666650,1,190.7632860032420,Pb2W2O8,3.6560000000000000,7.921940614496030,-6.879503339166670,-2.000067079166670,2.21E-05,1.105E-05
mp-774922,Ti3TeO8,-96.03743532,0.07342354805555650,1,216.20223953423900,Ti3Te1O8,3.1522,3.0660222889749000,-8.00311961,-2.926664191666670,0.0015315,0.0015315
mp-778194,Ge2N2O,-66.75424915,0.034816459999996500,9,136.60479106520600,Ge4N4O2,2.4588000000000000,4.602006810669790,-6.675424915000000,-0.7838236020000000,2.5E-06,1.25E-06