material_id,pretty_formula,final_energy,e_above_hull,spacegroup.number,volume,full_formula,band_gap,density,final_energy_per_atom,formation_energy_per_atom,magnetism.total_magnetization,total_magnetization
mp-25542,LiMnO2,-52.95302229,0.021957220000000900,8,83.60247938128410,Li2Mn2O4,1.7503000000000000,3.729263300906790,-6.61912778625,-2.1379127440660900,0.0,0.0
mp-29033,P3BrCl14,-53.83263161,0.0,79,520.8857642003840,P3Br1Cl14,1.6020000000000000,2.1332478191249400,-2.990701756111110,-1.0670154420833300,0.0,0.0
mp-29057,Nb3SBr7,-56.89505728,0.0,156,311.6697333607620,Nb3S1Br7,0.7444000000000000,4.635853424754880,-5.172277934545460,-1.3851965496022700,0.0002446,0.0002446
mp-29091,Ti(CuS)4,-46.29924093,0.0,121,157.14994440866000,Ti1Cu4S4,1.4548000000000000,4.546920006726620,-5.144360103333330,-0.830346973981482,0.0006366,0.0006366
mp-36033,PrOF,-22.7247125,0.053493020000000300,216,46.45496330601850,Pr1O1F1,5.1926000000000000,6.287764670965430,-7.574904166666670,-4.0777911275,0.00155,0.00155
mp-36381,Sn(PS3)2,-42.05669325,0.0,146,226.05039614913600,Sn1P2S6,1.3748,2.7403623167805200,-4.672965916666670,-0.6022019089351860,0.0003925,0.0003925
mp-37449,Nd5AgS8,-85.29565013,0.021059812760419100,82,316.32714620078200,Nd5Ag1S8,1.6240000000000000,5.698778126953500,-6.092546437857140,-2.111055652976190,1.79E-05,1.79E-05
mp-568100,ReNCl4,-30.64005471,0.03616769046296580,79,159.04340223022700,Re1N1Cl4,1.1042000000000000,3.5710191599716200,-5.106675785,-0.8803143266666670,0.0012024,0.0012024
mp-640885,Er(CuTe)3,-119.99992538,0.0,31,677.6202396325670,Er4Cu12Te12,0.38350000000000000,7.260446091045640,-4.285711620714290,-0.7101056764285720,0.0010412,0.0002603
mp-690525,MnCO3,-78.33140629,0.081420198,9,112.07515008417500,Mn2C2O6,3.3545000000000000,3.406176884268520,-7.833140629000000,-1.932404827586210,10.0,5.0
mp-706430,H3NO4,-174.66836073,0.04156773000002100,33,360.42707465163300,H12N4O16,3.963,1.493232536797640,-5.4583862728125,-1.0135716378125000,0.0029806,0.00074515
mp-753141,Li5Cr2O8,-90.04913513,0.06336400944444340,1,186.816780122709,Li5Cr2O8,0.5212000000000000,2.37052125978421,-6.003275675333330,-2.073915854444440,0.9998925,0.9998925
mp-772052,CdSeO4,-58.47305508,0.020635926666664700,31,170.1067855752360,Cd2Se2O8,1.8945000000000000,4.985686317556070,-4.87275459,-1.295647047057290,0.0002483,0.00012415
mp-781081,VOF3,-58.90345375,0.022392188499999600,4,145.47054858084300,V2O2F6,3.1159,2.8294490363985800,-5.890345375,-2.691684579500000,3E-06,1.5E-06
mp-1001780,LuCuS2,-22.367179,0.0,156,78.51531902758920,Lu1Cu1S2,1.5031000000000000,6.400668442249270,-5.59179475,-1.6200305190625000,0.0010053,0.0010053
mp-13863,BaGeO3,-131.21956747,0.0,19,356.8194419630240,Ba4Ge4O12,3.549,4.80199498173837,-6.560978373500000,-2.6960020335000000,0.0004438,0.00011095
mp-22994,LiIO3,-92.48536365,0.004807386000000410,33,303.54875928084900,Li4I4O12,3.6474000000000000,3.9790446683333800,-4.6242681825,-1.3811044831666700,0.0019621,0.000490525
mp-23063,Ba4Cl6O,-104.54166402,0.0,186,683.8675655295050,Ba8Cl12O2,4.3725000000000000,3.7783384872384400,-4.751893819090910,-2.993342520454550,0.0031447,0.00157235
mp-29314,RbVBr3,-126.70699187,0.0,185,970.4935068425990,Rb6V6Br18,0.6103000000000000,3.861318646813000,-4.2235663956666700,-1.5489186316666700,17.9993971,2.9998995166666700
mp-30460,YNiBi,-18.15384223,0.0,216,68.5782015938281,Y1Ni1Bi1,0.2570000000000000,8.634149415094080,-6.051280743333330,-0.6724000422222220,0.0005331,0.0005331
mp-552941,Na4CO4,-46.9501029,0.15603414101852000,146,114.98524119563700,Na4C1O4,2.1739000000000000,2.425671231558700,-5.216678100000000,-1.7099307784674300,1E-07,1E-07
mp-567713,Nb3TeI7,-50.06882969,0.0020235781818183100,156,375.3468713718710,Nb3Te1I7,0.4801000000000000,5.727549050157330,-4.55171179,-0.8207750304545460,5.1E-06,5.1E-06
mp-606711,Cs3LiCl4,-26.88890798,0.05935256406249990,38,288.8248848543220,Cs3Li1Cl4,4.7641,3.147562071615520,-3.3611134975,-2.1694539196408000,7.6E-06,7.6E-06
mp-624483,YbBeF4,-135.51027268,0.2504459579166670,2,312.5817265352020,Yb4Be4F16,5.4258,5.483303556953020,-5.646261361666670,-3.8001051925000000,0.0004908,0.0001227
mp-760343,FePO4,-170.71227604,0.0,82,420.97827706243000,Fe4P4O16,2.8209,2.3795665917113200,-7.113011501666670,-2.334485672222220,0.0,0.0
mp-768353,YTmO3,-261.01945469,0.07621912245833510,185,448.20930423084500,Y6Tm6O18,3.1726000000000000,6.798471705032730,-8.700648489666670,-3.955610579333330,0.0007475,0.00012458333333333300
mvc-3714,Zn3W2O7,-145.22236242,0.08325501500000070,36,277.27154852600400,Zn6W4O14,1.3419000000000000,8.095767564980200,-6.0509317675,-1.8304142004166700,7.9998674,3.9999337
mvc-7383,ZnCr2O7,-124.50295122,0.052586145800001200,4,317.65522908445200,Zn2Cr4O14,2.4233000000000000,2.9419991798706500,-6.225147561,-1.5856910025000000,0.0019979,0.00099895
mp-1191586,Zn(BH4)2,-84.45497497,0.0,98,300.473928163231,Zn2B4H16,4.438,1.0510606790070100,-3.8388624986363600,-0.17265017939393900,1.19E-05,5.95E-06
mp-19086,BaCoO2,-72.35214568,0.002469871041665960,152,208.83583833814500,Ba3Co3O6,0.5262000000000000,5.444941560556690,-6.029345473333330,-2.051542814583330,9.0007115,3.0002371666666700
mp-19412,VAg3O4,-42.64721341,0.030719150000003000,121,127.89211831471900,V1Ag3O4,0.5961,5.694009575080280,-5.33090167625,-1.2152244137500000,0.0004672,0.0004672
mp-22786,ThNiSn,-19.27169882,0.0,216,71.32328956279770,Th1Ni1Sn1,0.35330000000000000,9.532560037308960,-6.423899606666670,-0.6893773450000010,0.0012481,0.0012481
mp-3107,Ga3PO7,-71.04637699,0.016049203181817800,160,126.23510726999200,Ga3P1O7,3.1481000000000000,4.632149104184660,-6.458761544545450,-2.4292781255303000,7.5E-06,7.5E-06
mp-33723,BiTeBr,-10.18038139,0.0,156,113.71955981319300,Bi1Te1Br1,1.2970000000000000,6.081527381617850,-3.3934604633333300,-0.8220377525000010,0.0033901,0.0033901
mp-35907,La5TlTe8,-72.88021129,0.0,82,464.68170443875400,La5Tl1Te8,1.0813000000000000,6.860081859136830,-5.205729377857140,-1.719080369880950,0.0011038,0.0011038
mp-4187,Ge2N2O,-67.10241375,0.0,36,142.39547007282700,Ge4N4O2,2.6390000000000000,4.414860799509150,-6.710241375,-0.8186400619999990,8.93E-05,4.465E-05
mp-548403,CaCO3,-71.81584954,0.3098526119999950,20,104.7489959704010,Ca2C2O6,5.7446,3.1732658812663000,-7.181584954,-2.378532235,0.0001961,9.805E-05
mp-556295,V2Te2O9,-168.50126501,0.012289310000025600,43,364.9423386761340,V4Te4O18,2.4033000000000000,4.559947378079230,-6.480817885,-1.9113514969230800,8.71E-05,4.355E-05
mp-675349,DyCuSe2,-20.54345007,0.0,156,93.30911605737490,Dy1Cu1Se2,1.1062000000000000,6.833100239145840,-5.1358625175,-1.4474084011718700,0.0001239,0.0001239
mp-697139,PHN2,-107.86488345,0.0,19,156.55352441022400,P4H4N8,4.9669,2.5454351424143400,-6.741555215625,-0.552300615208333,0.0013338,0.00033345
mp-754943,ErBiO3,-70.66672331,0.030865551999999900,161,157.85021467352300,Er2Bi2O6,3.2083,8.925716189586980,-7.0666723310000000,-2.8185451040000000,3.95E-05,1.975E-05
mp-755260,Cd4B6O13,-153.39060041,0.026677115434774900,217,245.73994851378800,Cd4B6O13,2.6868,4.882165622888670,-6.669156539565220,-2.3578346817391300,0.0001574,0.0001574
mp-763200,LiVO3,-67.57791776,0.08454501549999890,5,107.92854975418000,Li2V2O6,1.9412000000000000,3.25806358279442,-6.757791776,-2.342649385666670,0.0006155,0.00030775
mp-771248,Na2Ge2O5,-209.63934251,0.01243225543650970,33,526.9980869845260,Na8Ge8O20,2.9922,3.418851722418460,-5.823315069722220,-2.134880478400380,0.0046038,0.00115095
mp-996984,AgClO2,-15.35315322,0.2207838712500080,1,108.35512978240200,Ag1Cl1O2,0.5702,2.6867736649012300,-3.838288305,-0.2745346366666660,1.9999148,1.9999148
mp-1025377,Cd(AgI2)2,-15.6556017,0.0,121,280.63205281567200,Cd1Ag2I4,2.0050000000000000,4.945339935418760,-2.2365145285714300,-0.6410784961904760,0.0002515,0.0002515
mp-1029652,Y3Si6N11,-339.76884637,0.0,100,486.2492600450030,Y6Si12N22,3.1206000000000000,4.024942800521060,-8.49422115925,-1.5101340775000000,0.0006488,0.0003244
mp-1118943,Cs3Re2N5,-286.44204188,0.0,80,977.3930202409160,Cs12Re8N20,0.3215000000000000,5.716371673934990,-7.161051047000000,-0.41577743587931100,0.000324,8.1E-05
mp-1219924,PRhS,-76.15794805,0.0,198,184.7749736845500,P4Rh4S4,1.4532000000000000,5.965243548610420,-6.346495670833330,-0.8761422563194450,0.0005467,0.000136675
mp-1228809,AlReSi,-23.06203312,0.0,107,41.28732870616420,Al1Re1Si1,0.2931000000000010,9.703823894807710,-7.687344373333330,-0.45853869499999900,0.0009653,0.0009653
mp-30126,Ba(BS2)2,-77.45899021,0.0,9,311.6444687025040,Ba2B4S8,2.8723,3.0606785146210200,-5.532785015,-1.2739916094047600,3.73E-05,1.865E-05
mp-3481,KSnAs,-21.93658005,0.0,186,196.15788619323500,K2Sn2As2,0.33900000000000000,3.940265654527010,-3.656096675,-0.3964002726666670,0.0014337,0.00071685
mp-3647,LiGaS2,-69.25326418,0.0,33,329.89979831854700,Li4Ga4S8,2.9659000000000000,2.834726647721460,-4.32832901125,-1.2773493555208300,0.0008039,0.000200975
mp-504422,H7NO6,-294.86675751,0.004682026428576510,19,512.6855490068090,H28N4O24,3.5741,1.516567116831660,-5.265477812678570,-1.1475247219642900,0.0,0.0
mp-625111,H8PtO6,-151.78582925,0.06967737400000650,9,227.01038128822500,H16Pt2O12,1.6033,4.376365194199430,-5.059527641666670,-1.1409621683333300,0.0010445,0.00052225
mp-642210,MgSiO3,-282.09927828,0.1445936040000050,33,540.679245915951,Mg8Si8O24,4.205,2.4665175806818500,-7.052481957,-3.0907865400000000,0.0016372,0.00020465
mp-644271,LiHS,-23.48178882,0.00023036249999997000,40,96.05077039843180,Li2H2S2,3.4984000000000000,1.3835331107281400,-3.91363147,-0.9352652104861110,0.0009523,0.00047615
mp-752463,NbNO,-56.16443314,0.06174088166666540,109,82.59308628606970,Nb2N2O2,1.0384000000000000,4.942325901365800,-9.360738856666670,-1.914818533333330,8.51E-05,4.255E-05
mp-752467,NbO2F,-65.49095866,0.0,9,119.91749392371700,Nb2O4F2,2.2316,3.985365502706900,-8.1863698325,-3.1681933281250000,5.8E-06,2.9E-06
mp-754979,Y3AlO6,-174.15560535,0.018554306649999600,36,268.19046534622700,Y6Al2O12,4.3752000000000000,4.8257090874776500,-8.7077802675,-3.8367047475000000,0.0030865,0.00154325
mp-777589,Li2MnF4,-154.11286549,0.021473251071428800,95,324.0899211312410,Li8Mn4F16,4.0321,2.9679261275979700,-5.504030910357140,-3.0597770681568100,20.003363,5.00084075
mp-866922,Ca2SnS4,-32.94982263,0.19382293750000000,82,221.05177441365800,Ca2Sn1S4,2.3171,2.4573677553209000,-4.707117518571430,-1.4850359353571400,0.0002024,0.0002024
mp-9197,Li3AsO4,-91.18600578,0.0,31,175.8885997591400,Li6As2O8,4.1579,3.016206440302240,-5.69912536125,-2.270408983125,0.0002735,0.00013675
mp-1029312,RbVN2,-59.35825311,0.0,122,141.72149489353500,Rb2V2N4,0.7071000000000000,3.8530544289129800,-7.41978163875,-0.9159241406250010,5E-07,2.5E-07
mp-1030245,Ca3ReN4,-1050.78373978,0.0,159,2373.8345188262,Ca54Re18N72,0.07059999999999980,4.563947012818380,-7.297109304027780,-1.0016959884027800,1.0068558,0.05593643333333330
mp-18938,Tl2MoO4,-82.08716943,0.0,5,298.416426752324,Tl4Mo2O8,3.4625000000000000,6.329112319431960,-5.863369245,-1.6615444816666700,0.00169,0.000845
mp-28240,CSO,-19.89788008,0.10478837690476300,160,76.05754924741090,C1S1O1,4.9384,1.3115995909281500,-6.632626693333330,-0.9255628360416670,0.0001874,0.0001874
mp-38240,Sr(PrS2)2,-84.70790911,0.0,122,334.3312183448640,Sr2Pr4S8,2.0955,4.943854737852980,-6.050564936428570,-2.3669804777381000,0.0011836,0.0005918
mp-4122,GaPO4,-122.92709385,0.01052697833333220,152,244.40471174219700,Ga3P3O12,4.4468000000000000,3.356908549761140,-6.829282991666670,-2.581742566805560,8.14E-05,2.71333333333333E-05
mp-553932,GaPO4,-82.00073439,0.006415437499999400,20,175.43732044692100,Ga2P2O8,4.448,3.117710889029510,-6.833394532500000,-2.585854107638890,0.0007748,0.0003874
mp-626417,CsH3O2,-28.2669574,0.0,38,79.82893876812480,Cs1H3O2,4.1021,3.493108239591270,-4.711159566666670,-1.4452424804885100,0.0011338,0.0011338
mp-626435,Al(HO)3,-163.95532091,0.02099409428571610,1,216.43792482156600,Al4H12O12,5.0015,2.393812572281990,-5.8555471753571400,-2.0403133210714300,0.0001325,3.3125E-05
mp-677103,RbHF2,-34.42763131,0.001720003750000030,46,130.96010007901300,Rb2H2F4,6.6749,3.1565572398261300,-4.30345391375,-2.485399400625,3.25E-05,1.625E-05
mp-752395,Ba2Na2O3,-137.26251301,0.08005096392857160,96,572.546228906111,Ba8Na8O12,1.9318,4.276527359106490,-4.902232607500000,-2.14996471294335,1.6E-06,4E-07
mp-753378,TaGaO4,-98.16172537,0.032641420833323700,30,132.1845611664580,Ta2Ga2O8,3.3885,7.905905189784450,-8.180143780833330,-2.8585241687500000,0.0027641,0.00138205
mvc-1621,Mg(SbO3)2,-108.38336893,0.142000553888888,31,214.47230486606000,Mg2Sb4O12,1.5252,5.633731108941030,-6.021298273888890,-2.085292878333330,0.000287,0.0001435
mp-1205304,TiI2O7,-113.31724666,0.0,36,317.85593365822700,Ti2I4O14,2.6437,4.322197651700930,-5.665862333,-1.5888379048333300,1.09E-05,5.45E-06
mp-26974,CrP2O7,-145.74764994,0.025434357250005300,4,257.8622453356050,Cr2P4O14,0.5233000000000000,2.909935417252010,-7.287382497,-2.456644545166670,3.9993966,1.9996983
mp-28548,Li8GeO6,-157.00236992,0.0006375609999986760,185,291.13322799051500,Li16Ge2O12,3.4877000000000000,2.5571367865510500,-5.233412330666670,-2.2027338761111100,0.0005767,0.00028835
mp-31454,TaSbRu,-26.39809785,0.0,216,59.395606945772800,Ta1Sb1Ru1,0.8956,11.288527526641400,-8.79936595,-0.4429764416666670,0.0001561,0.0001561
mp-35555,LaOF,-23.2353486,0.061105065000001300,216,47.95807070507110,La1O1F1,4.764,6.021367722110590,-7.745116200000000,-4.196300507500000,0.0017225,0.0017225
mp-556372,CaSO4,-117.54927991,0.002893785277780840,181,273.735539777919,Ca3S3O12,5.693700000000000,2.4775750898159400,-6.530515550555560,-2.7500332560763900,0.0,0.0
mp-616573,Cs2V5O13,-142.33473749,0.0,107,380.37488264460300,Cs2V5O13,1.5454,3.1803370128740500,-7.116736874500000,-2.4115954665431000,0.9996001,0.9996001
mp-626259,H3NO4,-173.85179265,0.06708548250002090,33,294.0464935428540,H12N4O16,3.3338,1.8303276754911300,-5.4328685203125,-0.9880538853125000,0.0,0.0
mp-760762,NbOF3,-140.72774082,0.0,19,296.73273990207100,Nb4O4F12,3.6441,3.7135784141556700,-7.036387041,-3.2942464515000000,0.0,0.0
mp-777422,DyHO2,-56.87272059,0.007930655312500260,31,94.13026497867520,Dy2H2O4,4.7409,6.8978150571902900,-7.10909007375,-2.9787313500000000,3.91E-05,1.955E-05
mp-7848,AlPO4,-44.92752595,0.0,82,96.2804918705831,Al1P1O4,5.8209,2.103308279767520,-7.487920991666670,-3.120800598888890,0.0002821,0.0002821
mp-9900,Ag2GeS3,-48.02811977,0.0,36,277.1091688065450,Ag4Ge2S6,0.46800000000000000,4.608983790376650,-4.002343314166670,-0.4709284037847230,0.0003545,0.00017725
mp-1019589,Ce3Zr5O16,-220.17805577,0.045646370416667600,21,301.04223798993400,Ce3Zr5O16,1.7791000000000000,6.246603224369480,-9.174085657083330,-3.811037878125000,6.53E-05,6.53E-05
mp-1189598,Y3GaS6,-129.11863452,0.0,36,464.80858608101500,Y6Ga2S12,2.1312000000000000,3.7785179283822700,-6.455931726,-2.0331108696250000,0.0007157,0.00035785
mp-1222351,LiFeF6,-68.5848247,0.0,102,195.81683510824900,Li2Fe2F12,1.2569,2.9981502864448300,-4.28655154375,-2.1840759035416700,6.0051638,3.0025819
mp-27810,Ba(GeAs)2,-91.96619285,0.0,105,555.0151518122400,Ba4Ge8As8,0.046399999999999800,5.175357459083670,-4.5983096425,-0.5016569725000000,0.0013195,0.000329875
mp-28080,K2SnTe5,-52.45360842,0.0,140,584.0942103173550,K4Sn2Te10,0.5814000000000000,4.747162364471690,-3.27835052625,-0.7987412263750000,0.0002361,0.00011805
mp-28295,CsIO3,-44.15701017,0.0,31,219.35607471440500,Cs2I2O6,3.0624000000000000,4.660253080268670,-4.415701017,-1.375241416586210,0.0016716,0.0008358
mp-29643,CuAsSe2,-15.85438482,0.10863654374999600,160,97.81169795631150,Cu1As1Se2,0.5216000000000000,5.031741590618780,-3.963596205,-0.26205919742187500,3.22E-05,3.22E-05
mp-754222,NbFeO4,-190.61240263,0.11155927875003300,95,328.0039374750370,Nb4Fe4O16,2.0282,4.308216485312020,-7.942183442916670,-2.3823238579166700,20.0003825,5.000095625
mp-755436,Na3VO4,-93.50735324,0.0,31,247.59887728215400,Na6V2O8,4.0347,2.466789019778300,-5.8442095775,-2.2947938312069000,0.0012791,0.00063955
mp-772898,AlGaO3,-269.25656848,0.027670599999999500,33,399.14955897707600,Al8Ga8O24,3.2132,4.815930171239060,-6.731414212,-2.8201032385000000,4.55E-05,5.6875E-06
mp-850957,Na6Ti2O7,-182.72120161,0.04021767811110790,7,467.39720251167400,Na12Ti4O14,3.0984,2.456137543151130,-6.090706720333330,-2.5205158650651300,0.0005643,0.00028215
mp-9212,NaAlO2,-101.30362379,0.0,33,204.0234847819590,Na4Al4O8,3.8149000000000000,2.668605853362870,-6.331476486875,-2.933970703512930,0.0002767,6.9175E-05
mp-989617,YWN3,-98.53545615,0.024336601499999900,40,151.49849982350300,Y2W2N6,1.4991000000000000,6.900149604377460,-9.853545615,-1.1833291433333300,2.6E-06,1.3E-06
mp-1009085,BeSiP2,-42.97211944,0.0,122,134.6096568726490,Be2Si2P4,1.1502000000000000,2.443634992369750,-5.37151493,-0.37368195541666600,3E-07,1.5E-07
mp-1013527,BeGeP2,-40.52776163,0.0,122,142.40321984336200,Be2Ge2P4,0.9116,3.348982165256700,-5.06597020375,-0.26870877041666700,9.27E-05,4.635E-05
mp-22981,TlIO3,-21.52281404,0.0,160,96.39528367162660,Tl1I1O3,3.0753000000000000,6.533713544988090,-4.304562808,-0.9706550526666670,0.0001333,0.0001333
mp-34169,Zn(InSe2)2,-24.89528451,0.0009475257142828040,121,199.14149548206500,Zn1In2Se4,1.3264,5.09385753704606,-3.556469215714290,-0.8623610756250000,0.00013,0.00013
mp-3432,ScNiSb,-18.94038876,0.0,216,57.04567261028840,Sc1Ni1Sb1,0.3161000000000010,6.561426159500170,-6.31346292,-0.963593911666667,0.0010216,0.0010216
mp-5213,CdSnP2,-32.28022525,0.0,122,210.0153974151030,Cd2Sn2P4,0.6714000000000000,4.634438610526410,-4.03502815625,-0.09526149916666690,0.000102,5.1E-05
mp-545756,ZnSO4,-33.38995467,0.038264746250000300,216,121.3441001027720,Zn1S1O4,4.2721,2.20966573339221,-5.564992445000000,-1.908819528854170,0.0001716,0.0001716
mp-549207,Li4CO4,-51.35494718,0.24743045444444400,8,90.29862028633090,Li4C1O4,4.1774,1.908312193857740,-5.706105242222220,-1.9387367770370400,0.0002126,0.0002126
mp-676049,KBF4,-32.97922093,0.0738720995833324,1,105.72426853951900,K1B1F4,7.4561,1.9774712863110100,-5.496536821666670,-3.231919057027780,0.0002264,0.0002264
mp-677072,Ca(InTe2)2,-24.45235772,0.0639090564127005,97,244.3437218733450,Ca1In2Te4,1.1735000000000000,5.301588121314890,-3.4931939600000000,-0.8654552371428570,0.0019342,0.0019342
mp-755047,Ti3N2O3,-146.89817955,0.052450438281249800,36,188.52200149115500,Ti6N4O6,1.7137000000000000,3.8687824119532100,-9.181136221875,-2.6285926075,5.3E-06,2.65E-06
mp-777418,Li2FeF4,-72.14027778,0.028556166428570500,13,159.30690339921500,Li4Fe2F8,3.5946000000000000,3.0378441260253000,-5.152876984285710,-2.8914812623809500,8.0040556,4.0020278
mp-1101755,GePtS,-66.32723747,0.0,29,209.5678732407000,Ge4Pt4S4,0.9898000000000000,9.501672914630090,-5.527269789166670,-0.751474645208333,0.0,0.0
mp-1192816,Cs3SbSe3,-96.28465551,0.0,198,1285.334869666030,Cs12Sb4Se12,2.2748,3.9137499360129400,-3.438737696785710,-1.1691744411891900,0.0001729,4.3225E-05
mp-28407,SBr2O,-112.90622481,0.0,29,1075.333294393890,S8Br16O8,2.7319,2.567987007321030,-3.5283195253125,-1.00325036109375,0.0002333,2.91625E-05
mp-29927,Pb7(BrF6)2,-97.52585676,0.012116298095238100,174,387.6577093469950,Pb7Br2F12,4.063400000000000,7.873916355469830,-4.644088417142860,-2.4732244702380900,0.0069626,0.0069626
mp-31488,Li3NbO4,-218.43476775,0.0,217,310.2287675449840,Li12Nb4O16,3.7756,3.805225360811110,-6.8260864921875,-2.7170967846875000,3.58E-05,8.95E-06
mp-38975,PNO,-65.92804481,0.03901283944444250,145,104.65877843998700,P3N3O3,5.1417,2.9025594786090600,-7.325338312222220,-1.4420855000000000,1.62E-05,5.4E-06
mp-5222,ReTeS,-83.42091845,0.0,216,264.78951718159500,Re4Te4S4,0.1333000000000000,8.676083164564140,-6.951743204166670,-0.6853172102083330,5.41E-05,1.3525E-05
mp-5679,CdSO4,-66.04840761,0.010588795833332800,31,156.1886715684420,Cd2S2O8,3.0499,4.432825424256790,-5.5040339675,-1.9040033596875000,0.0015376,0.0007688
mp-5782,AlAgS2,-35.76132945,0.0,122,173.81532230192900,Al2Ag2S4,1.8992,3.801893009561080,-4.47016618125,-1.0089082894791700,3.14E-05,1.57E-05
mp-608311,Cs2Li3I5,-28.6034525,0.011486420999999900,5,404.6510843835480,Cs2Li3I5,3.8262,3.7800861159387400,-2.86034525,-1.536081608086210,0.0017189,0.0017189